# vtk DataFile Version 2.0
sampleSurface
ASCII
DATASET POLYDATA
POINTS 1326 float
0 -2.5 0 0 -2.5 0.1 0 -2.4 0.1 0 -2.4
0 0 -2.3 0.1 0 -2.3 0 0 -2.2 0.1
0 -2.2 0 0 -2.1 0.1 0 -2.1 0 0
-2 0.1 0 -2 0 0 -1.9 0.1 0 -1.9
0 0 -1.8 0.1 0 -1.8 0 0 -1.7 0.1
0 -1.7 0 0 -1.6 0.1 0 -1.6 0 0
-1.5 0.1 0 -1.5 0 0 -1.4 0.1 0 -1.4
0 0 -1.3 0.1 0 -1.3 0 0 -1.2 0.1
0 -1.2 0 0 -1.1 0.1 0 -1.1 0 0
-1 0.1 0 -1 0 0 -0.9 0.1 0 -0.9
0 0 -0.8 0.1 0 -0.8 0 0 -0.7 0.1
0 -0.7 0 0 -0.6 0.1 0 -0.6 0 0
-0.5 0.1 0 -0.5 0 0 -0.4 0.1 0 -0.4
0 0 -0.3 0.1 0 -0.3 0 0 -0.2 0.1
0 -0.2 0 0 -0.1 0.1 0 -0.1 0 0
0 0.1 0 0 0 0 0.1 0.1 0 0.1
0 0 0.2 0.1 0 0.2 0 0 0.3 0.1
0 0.3 0 0 0.4 0.1 0 0.4 0 0
0.5 0.1 0 0.5 0 0 0.6 0.1 0 0.6
0 0 0.7 0.1 0 0.7 0 0 0.8 0.1
0 0.8 0 0 0.9 0.1 0 0.9 0 0
1 0.1 0 1 0 0 1.1 0.1 0 1.1
0 0 1.2 0.1 0 1.2 0 0 1.3 0.1
0 1.3 0 0 1.4 0.1 0 1.4 0 0
1.5 0.1 0 1.5 0 0 1.6 0.1 0 1.6
0 0 1.7 0.1 0 1.7 0 0 1.8 0.1
0 1.8 0 0 1.9 0.1 0 1.9 0 0
2 0.1 0 2 0 0 2.1 0.1 0 2.1
0 0 2.2 0.1 0 2.2 0 0 2.3 0.1
0 2.3 0 0 2.4 0.1 0 2.4 0 0
2.5 0.1 0 2.5 0 0 -2.5 0.2 0 -2.4
0.2 0 -2.3 0.2 0 -2.2 0.2 0 -2.1 0.2
0 -2 0.2 0 -1.9 0.2 0 -1.8 0.2 0
-1.7 0.2 0 -1.6 0.2 0 -1.5 0.2 0 -1.4
0.2 0 -1.3 0.2 0 -1.2 0.2 0 -1.1 0.2
0 -1 0.2 0 -0.9 0.2 0 -0.8 0.2 0
-0.7 0.2 0 -0.6 0.2 0 -0.5 0.2 0 -0.4
0.2 0 -0.3 0.2 0 -0.2 0.2 0 -0.1 0.2
0 0 0.2 0 0.1 0.2 0 0.2 0.2 0
0.3 0.2 0 0.4 0.2 0 0.5 0.2 0 0.6
0.2 0 0.7 0.2 0 0.8 0.2 0 0.9 0.2
0 1 0.2 0 1.1 0.2 0 1.2 0.2 0
1.3 0.2 0 1.4 0.2 0 1.5 0.2 0 1.6
0.2 0 1.7 0.2 0 1.8 0.2 0 1.9 0.2
0 2 0.2 0 2.1 0.2 0 2.2 0.2 0
2.3 0.2 0 2.4 0.2 0 2.5 0.2 0 -2.5
0.3 0 -2.4 0.3 0 -2.3 0.3 0 -2.2 0.3
0 -2.1 0.3 0 -2 0.3 0 -1.9 0.3 0
-1.8 0.3 0 -1.7 0.3 0 -1.6 0.3 0 -1.5
0.3 0 -1.4 0.3 0 -1.3 0.3 0 -1.2 0.3
0 -1.1 0.3 0 -1 0.3 0 -0.9 0.3 0
-0.8 0.3 0 -0.7 0.3 0 -0.6 0.3 0 -0.5
0.3 0 -0.4 0.3 0 -0.3 0.3 0 -0.2 0.3
0 -0.1 0.3 0 0 0.3 0 0.1 0.3 0
0.2 0.3 0 0.3 0.3 0 0.4 0.3 0 0.5
0.3 0 0.6 0.3 0 0.7 0.3 0 0.8 0.3
0 0.9 0.3 0 1 0.3 0 1.1 0.3 0
1.2 0.3 0 1.3 0.3 0 1.4 0.3 0 1.5
0.3 0 1.6 0.3 0 1.7 0.3 0 1.8 0.3
0 1.9 0.3 0 2 0.3 0 2.1 0.3 0
2.2 0.3 0 2.3 0.3 0 2.4 0.3 0 2.5
0.3 0 -2.5 0.4 0 -2.4 0.4 0 -2.3 0.4
0 -2.2 0.4 0 -2.1 0.4 0 -2 0.4 0
-1.9 0.4 0 -1.8 0.4 0 -1.7 0.4 0 -1.6
0.4 0 -1.5 0.4 0 -1.4 0.4 0 -1.3 0.4
0 -1.2 0.4 0 -1.1 0.4 0 -1 0.4 0
-0.9 0.4 0 -0.8 0.4 0 -0.7 0.4 0 -0.6
0.4 0 -0.5 0.4 0 -0.4 0.4 0 -0.3 0.4
0 -0.2 0.4 0 -0.1 0.4 0 0 0.4 0
0.1 0.4 0 0.2 0.4 0 0.3 0.4 0 0.4
0.4 0 0.5 0.4 0 0.6 0.4 0 0.7 0.4
0 0.8 0.4 0 0.9 0.4 0 1 0.4 0
1.1 0.4 0 1.2 0.4 0 1.3 0.4 0 1.4
0.4 0 1.5 0.4 0 1.6 0.4 0 1.7 0.4
0 1.8 0.4 0 1.9 0.4 0 2 0.4 0
2.1 0.4 0 2.2 0.4 0 2.3 0.4 0 2.4
0.4 0 2.5 0.4 0 -2.5 0.5 0 -2.4 0.5
0 -2.3 0.5 0 -2.2 0.5 0 -2.1 0.5 0
-2 0.5 0 -1.9 0.5 0 -1.8 0.5 0 -1.7
0.5 0 -1.6 0.5 0 -1.5 0.5 0 -1.4 0.5
0 -1.3 0.5 0 -1.2 0.5 0 -1.1 0.5 0
-1 0.5 0 -0.9 0.5 0 -0.8 0.5 0 -0.7
0.5 0 -0.6 0.5 0 -0.5 0.5 0 -0.4 0.5
0 -0.3 0.5 0 -0.2 0.5 0 -0.1 0.5 0
0 0.5 0 0.1 0.5 0 0.2 0.5 0 0.3
0.5 0 0.4 0.5 0 0.5 0.5 0 0.6 0.5
0 0.7 0.5 0 0.8 0.5 0 0.9 0.5 0
1 0.5 0 1.1 0.5 0 1.2 0.5 0 1.3
0.5 0 1.4 0.5 0 1.5 0.5 0 1.6 0.5
0 1.7 0.5 0 1.8 0.5 0 1.9 0.5 0
2 0.5 0 2.1 0.5 0 2.2 0.5 0 2.3
0.5 0 2.4 0.5 0 2.5 0.5 0 -2.5 0.6
0 -2.4 0.6 0 -2.3 0.6 0 -2.2 0.6 0
-2.1 0.6 0 -2 0.6 0 -1.9 0.6 0 -1.8
0.6 0 -1.7 0.6 0 -1.6 0.6 0 -1.5 0.6
0 -1.4 0.6 0 -1.3 0.6 0 -1.2 0.6 0
-1.1 0.6 0 -1 0.6 0 -0.9 0.6 0 -0.8
0.6 0 -0.7 0.6 0 -0.6 0.6 0 -0.5 0.6
0 -0.4 0.6 0 -0.3 0.6 0 -0.2 0.6 0
-0.1 0.6 0 0 0.6 0 0.1 0.6 0 0.2
0.6 0 0.3 0.6 0 0.4 0.6 0 0.5 0.6
0 0.6 0.6 0 0.7 0.6 0 0.8 0.6 0
0.9 0.6 0 1 0.6 0 1.1 0.6 0 1.2
0.6 0 1.3 0.6 0 1.4 0.6 0 1.5 0.6
0 1.6 0.6 0 1.7 0.6 0 1.8 0.6 0
1.9 0.6 0 2 0.6 0 2.1 0.6 0 2.2
0.6 0 2.3 0.6 0 2.4 0.6 0 2.5 0.6
0 -2.5 0.7 0 -2.4 0.7 0 -2.3 0.7 0
-2.2 0.7 0 -2.1 0.7 0 -2 0.7 0 -1.9
0.7 0 -1.8 0.7 0 -1.7 0.7 0 -1.6 0.7
0 -1.5 0.7 0 -1.4 0.7 0 -1.3 0.7 0
-1.2 0.7 0 -1.1 0.7 0 -1 0.7 0 -0.9
0.7 0 -0.8 0.7 0 -0.7 0.7 0 -0.6 0.7
0 -0.5 0.7 0 -0.4 0.7 0 -0.3 0.7 0
-0.2 0.7 0 -0.1 0.7 0 0 0.7 0 0.1
0.7 0 0.2 0.7 0 0.3 0.7 0 0.4 0.7
0 0.5 0.7 0 0.6 0.7 0 0.7 0.7 0
0.8 0.7 0 0.9 0.7 0 1 0.7 0 1.1
0.7 0 1.2 0.7 0 1.3 0.7 0 1.4 0.7
0 1.5 0.7 0 1.6 0.7 0 1.7 0.7 0
1.8 0.7 0 1.9 0.7 0 2 0.7 0 2.1
0.7 0 2.2 0.7 0 2.3 0.7 0 2.4 0.7
0 2.5 0.7 0 -2.5 0.8 0 -2.4 0.8 0
-2.3 0.8 0 -2.2 0.8 0 -2.1 0.8 0 -2
0.8 0 -1.9 0.8 0 -1.8 0.8 0 -1.7 0.8
0 -1.6 0.8 0 -1.5 0.8 0 -1.4 0.8 0
-1.3 0.8 0 -1.2 0.8 0 -1.1 0.8 0 -1
0.8 0 -0.9 0.8 0 -0.8 0.8 0 -0.7 0.8
0 -0.6 0.8 0 -0.5 0.8 0 -0.4 0.8 0
-0.3 0.8 0 -0.2 0.8 0 -0.1 0.8 0 0
0.8 0 0.1 0.8 0 0.2 0.8 0 0.3 0.8
0 0.4 0.8 0 0.5 0.8 0 0.6 0.8 0
0.7 0.8 0 0.8 0.8 0 0.9 0.8 0 1
0.8 0 1.1 0.8 0 1.2 0.8 0 1.3 0.8
0 1.4 0.8 0 1.5 0.8 0 1.6 0.8 0
1.7 0.8 0 1.8 0.8 0 1.9 0.8 0 2
0.8 0 2.1 0.8 0 2.2 0.8 0 2.3 0.8
0 2.4 0.8 0 2.5 0.8 0 -2.5 0.9 0
-2.4 0.9 0 -2.3 0.9 0 -2.2 0.9 0 -2.1
0.9 0 -2 0.9 0 -1.9 0.9 0 -1.8 0.9
0 -1.7 0.9 0 -1.6 0.9 0 -1.5 0.9 0
-1.4 0.9 0 -1.3 0.9 0 -1.2 0.9 0 -1.1
0.9 0 -1 0.9 0 -0.9 0.9 0 -0.8 0.9
0 -0.7 0.9 0 -0.6 0.9 0 -0.5 0.9 0
-0.4 0.9 0 -0.3 0.9 0 -0.2 0.9 0 -0.1
0.9 0 0 0.9 0 0.1 0.9 0 0.2 0.9
0 0.3 0.9 0 0.4 0.9 0 0.5 0.9 0
0.6 0.9 0 0.7 0.9 0 0.8 0.9 0 0.9
0.9 0 1 0.9 0 1.1 0.9 0 1.2 0.9
0 1.3 0.9 0 1.4 0.9 0 1.5 0.9 0
1.6 0.9 0 1.7 0.9 0 1.8 0.9 0 1.9
0.9 0 2 0.9 0 2.1 0.9 0 2.2 0.9
0 2.3 0.9 0 2.4 0.9 0 2.5 0.9 0
-2.5 1 0 -2.4 1 0 -2.3 1 0 -2.2
1 0 -2.1 1 0 -2 1 0 -1.9 1
0 -1.8 1 0 -1.7 1 0 -1.6 1 0
-1.5 1 0 -1.4 1 0 -1.3 1 0 -1.2
1 0 -1.1 1 0 -1 1 0 -0.9 1
0 -0.8 1 0 -0.7 1 0 -0.6 1 0
-0.5 1 0 -0.4 1 0 -0.3 1 0 -0.2
1 0 -0.1 1 0 0 1 0 0.1 1
0 0.2 1 0 0.3 1 0 0.4 1 0
0.5 1 0 0.6 1 0 0.7 1 0 0.8
1 0 0.9 1 0 1 1 0 1.1 1
0 1.2 1 0 1.3 1 0 1.4 1 0
1.5 1 0 1.6 1 0 1.7 1 0 1.8
1 0 1.9 1 0 2 1 0 2.1 1
0 2.2 1 0 2.3 1 0 2.4 1 0
2.5 1 0 -2.5 1.1 0 -2.4 1.1 0 -2.3
1.1 0 -2.2 1.1 0 -2.1 1.1 0 -2 1.1
0 -1.9 1.1 0 -1.8 1.1 0 -1.7 1.1 0
-1.6 1.1 0 -1.5 1.1 0 -1.4 1.1 0 -1.3
1.1 0 -1.2 1.1 0 -1.1 1.1 0 -1 1.1
0 -0.9 1.1 0 -0.8 1.1 0 -0.7 1.1 0
-0.6 1.1 0 -0.5 1.1 0 -0.4 1.1 0 -0.3
1.1 0 -0.2 1.1 0 -0.1 1.1 0 0 1.1
0 0.1 1.1 0 0.2 1.1 0 0.3 1.1 0
0.4 1.1 0 0.5 1.1 0 0.6 1.1 0 0.7
1.1 0 0.8 1.1 0 0.9 1.1 0 1 1.1
0 1.1 1.1 0 1.2 1.1 0 1.3 1.1 0
1.4 1.1 0 1.5 1.1 0 1.6 1.1 0 1.7
1.1 0 1.8 1.1 0 1.9 1.1 0 2 1.1
0 2.1 1.1 0 2.2 1.1 0 2.3 1.1 0
2.4 1.1 0 2.5 1.1 0 -2.5 1.2 0 -2.4
1.2 0 -2.3 1.2 0 -2.2 1.2 0 -2.1 1.2
0 -2 1.2 0 -1.9 1.2 0 -1.8 1.2 0
-1.7 1.2 0 -1.6 1.2 0 -1.5 1.2 0 -1.4
1.2 0 -1.3 1.2 0 -1.2 1.2 0 -1.1 1.2
0 -1 1.2 0 -0.9 1.2 0 -0.8 1.2 0
-0.7 1.2 0 -0.6 1.2 0 -0.5 1.2 0 -0.4
1.2 0 -0.3 1.2 0 -0.2 1.2 0 -0.1 1.2
0 0 1.2 0 0.1 1.2 0 0.2 1.2 0
0.3 1.2 0 0.4 1.2 0 0.5 1.2 0 0.6
1.2 0 0.7 1.2 0 0.8 1.2 0 0.9 1.2
0 1 1.2 0 1.1 1.2 0 1.2 1.2 0
1.3 1.2 0 1.4 1.2 0 1.5 1.2 0 1.6
1.2 0 1.7 1.2 0 1.8 1.2 0 1.9 1.2
0 2 1.2 0 2.1 1.2 0 2.2 1.2 0
2.3 1.2 0 2.4 1.2 0 2.5 1.2 0 -2.5
1.3 0 -2.4 1.3 0 -2.3 1.3 0 -2.2 1.3
0 -2.1 1.3 0 -2 1.3 0 -1.9 1.3 0
-1.8 1.3 0 -1.7 1.3 0 -1.6 1.3 0 -1.5
1.3 0 -1.4 1.3 0 -1.3 1.3 0 -1.2 1.3
0 -1.1 1.3 0 -1 1.3 0 -0.9 1.3 0
-0.8 1.3 0 -0.7 1.3 0 -0.6 1.3 0 -0.5
1.3 0 -0.4 1.3 0 -0.3 1.3 0 -0.2 1.3
0 -0.1 1.3 0 0 1.3 0 0.1 1.3 0
0.2 1.3 0 0.3 1.3 0 0.4 1.3 0 0.5
1.3 0 0.6 1.3 0 0.7 1.3 0 0.8 1.3
0 0.9 1.3 0 1 1.3 0 1.1 1.3 0
1.2 1.3 0 1.3 1.3 0 1.4 1.3 0 1.5
1.3 0 1.6 1.3 0 1.7 1.3 0 1.8 1.3
0 1.9 1.3 0 2 1.3 0 2.1 1.3 0
2.2 1.3 0 2.3 1.3 0 2.4 1.3 0 2.5
1.3 0 -2.5 1.4 0 -2.4 1.4 0 -2.3 1.4
0 -2.2 1.4 0 -2.1 1.4 0 -2 1.4 0
-1.9 1.4 0 -1.8 1.4 0 -1.7 1.4 0 -1.6
1.4 0 -1.5 1.4 0 -1.4 1.4 0 -1.3 1.4
0 -1.2 1.4 0 -1.1 1.4 0 -1 1.4 0
-0.9 1.4 0 -0.8 1.4 0 -0.7 1.4 0 -0.6
1.4 0 -0.5 1.4 0 -0.4 1.4 0 -0.3 1.4
0 -0.2 1.4 0 -0.1 1.4 0 0 1.4 0
0.1 1.4 0 0.2 1.4 0 0.3 1.4 0 0.4
1.4 0 0.5 1.4 0 0.6 1.4 0 0.7 1.4
0 0.8 1.4 0 0.9 1.4 0 1 1.4 0
1.1 1.4 0 1.2 1.4 0 1.3 1.4 0 1.4
1.4 0 1.5 1.4 0 1.6 1.4 0 1.7 1.4
0 1.8 1.4 0 1.9 1.4 0 2 1.4 0
2.1 1.4 0 2.2 1.4 0 2.3 1.4 0 2.4
1.4 0 2.5 1.4 0 -2.5 1.5 0 -2.4 1.5
0 -2.3 1.5 0 -2.2 1.5 0 -2.1 1.5 0
-2 1.5 0 -1.9 1.5 0 -1.8 1.5 0 -1.7
1.5 0 -1.6 1.5 0 -1.5 1.5 0 -1.4 1.5
0 -1.3 1.5 0 -1.2 1.5 0 -1.1 1.5 0
-1 1.5 0 -0.9 1.5 0 -0.8 1.5 0 -0.7
1.5 0 -0.6 1.5 0 -0.5 1.5 0 -0.4 1.5
0 -0.3 1.5 0 -0.2 1.5 0 -0.1 1.5 0
0 1.5 0 0.1 1.5 0 0.2 1.5 0 0.3
1.5 0 0.4 1.5 0 0.5 1.5 0 0.6 1.5
0 0.7 1.5 0 0.8 1.5 0 0.9 1.5 0
1 1.5 0 1.1 1.5 0 1.2 1.5 0 1.3
1.5 0 1.4 1.5 0 1.5 1.5 0 1.6 1.5
0 1.7 1.5 0 1.8 1.5 0 1.9 1.5 0
2 1.5 0 2.1 1.5 0 2.2 1.5 0 2.3
1.5 0 2.4 1.5 0 2.5 1.5 0 -2.5 1.6
0 -2.4 1.6 0 -2.3 1.6 0 -2.2 1.6 0
-2.1 1.6 0 -2 1.6 0 -1.9 1.6 0 -1.8
1.6 0 -1.7 1.6 0 -1.6 1.6 0 -1.5 1.6
0 -1.4 1.6 0 -1.3 1.6 0 -1.2 1.6 0
-1.1 1.6 0 -1 1.6 0 -0.9 1.6 0 -0.8
1.6 0 -0.7 1.6 0 -0.6 1.6 0 -0.5 1.6
0 -0.4 1.6 0 -0.3 1.6 0 -0.2 1.6 0
-0.1 1.6 0 0 1.6 0 0.1 1.6 0 0.2
1.6 0 0.3 1.6 0 0.4 1.6 0 0.5 1.6
0 0.6 1.6 0 0.7 1.6 0 0.8 1.6 0
0.9 1.6 0 1 1.6 0 1.1 1.6 0 1.2
1.6 0 1.3 1.6 0 1.4 1.6 0 1.5 1.6
0 1.6 1.6 0 1.7 1.6 0 1.8 1.6 0
1.9 1.6 0 2 1.6 0 2.1 1.6 0 2.2
1.6 0 2.3 1.6 0 2.4 1.6 0 2.5 1.6
0 -2.5 1.7 0 -2.4 1.7 0 -2.3 1.7 0
-2.2 1.7 0 -2.1 1.7 0 -2 1.7 0 -1.9
1.7 0 -1.8 1.7 0 -1.7 1.7 0 -1.6 1.7
0 -1.5 1.7 0 -1.4 1.7 0 -1.3 1.7 0
-1.2 1.7 0 -1.1 1.7 0 -1 1.7 0 -0.9
1.7 0 -0.8 1.7 0 -0.7 1.7 0 -0.6 1.7
0 -0.5 1.7 0 -0.4 1.7 0 -0.3 1.7 0
-0.2 1.7 0 -0.1 1.7 0 0 1.7 0 0.1
1.7 0 0.2 1.7 0 0.3 1.7 0 0.4 1.7
0 0.5 1.7 0 0.6 1.7 0 0.7 1.7 0
0.8 1.7 0 0.9 1.7 0 1 1.7 0 1.1
1.7 0 1.2 1.7 0 1.3 1.7 0 1.4 1.7
0 1.5 1.7 0 1.6 1.7 0 1.7 1.7 0
1.8 1.7 0 1.9 1.7 0 2 1.7 0 2.1
1.7 0 2.2 1.7 0 2.3 1.7 0 2.4 1.7
0 2.5 1.7 0 -2.5 1.8 0 -2.4 1.8 0
-2.3 1.8 0 -2.2 1.8 0 -2.1 1.8 0 -2
1.8 0 -1.9 1.8 0 -1.8 1.8 0 -1.7 1.8
0 -1.6 1.8 0 -1.5 1.8 0 -1.4 1.8 0
-1.3 1.8 0 -1.2 1.8 0 -1.1 1.8 0 -1
1.8 0 -0.9 1.8 0 -0.8 1.8 0 -0.7 1.8
0 -0.6 1.8 0 -0.5 1.8 0 -0.4 1.8 0
-0.3 1.8 0 -0.2 1.8 0 -0.1 1.8 0 0
1.8 0 0.1 1.8 0 0.2 1.8 0 0.3 1.8
0 0.4 1.8 0 0.5 1.8 0 0.6 1.8 0
0.7 1.8 0 0.8 1.8 0 0.9 1.8 0 1
1.8 0 1.1 1.8 0 1.2 1.8 0 1.3 1.8
0 1.4 1.8 0 1.5 1.8 0 1.6 1.8 0
1.7 1.8 0 1.8 1.8 0 1.9 1.8 0 2
1.8 0 2.1 1.8 0 2.2 1.8 0 2.3 1.8
0 2.4 1.8 0 2.5 1.8 0 -2.5 1.9 0
-2.4 1.9 0 -2.3 1.9 0 -2.2 1.9 0 -2.1
1.9 0 -2 1.9 0 -1.9 1.9 0 -1.8 1.9
0 -1.7 1.9 0 -1.6 1.9 0 -1.5 1.9 0
[...]
CELL_DATA 1250
FIELD attributes 1
Ut 3 1250 float
5.56869 -0.500036 -0.348013 8.70863 -1.04766 -0.75992 4.59551 -0.973277 0.427586 8.34356 -1.80702
0.972828 10.4496 -0.851069 -0.752119 3.79881 -0.957402 -0.385621 10.5189 -1.44833 0.687335
8.01043 -1.53822 -0.780073 10.6503 -0.956562 -0.415801 5.21759 -0.931589 -0.246618 13.3421
-0.959209 -0.681829 12.1338 -1.73741 0.0505186 8.46695 -1.51011 -0.147677 11.3874 -0.429518
0.339857 12.4216 -1.17096 0.00695672 15.6399 -0.841801 -0.501202 5.30698 -0.898615 0.05121
13.9914 -1.45004 -0.131372 8.59428 -1.11558 0.177671 12.8433 -0.744983 0.129451 12.2523
-1.46236 0.0461272 11.9598 -0.33914 0.316249 14.9963 -0.90134 -0.0928856 12.4341 -1.70307
-0.155434 5.77632 -0.75762 0.0518909 13.353 -0.914276 0.58901 14.9247 -2.0551 -0.145556
9.09605 -0.711608 0.334587 13.7984 -2.14725 0.173689 11.8913 -0.733022 0.665982 14.306
-1.64548 0.904645 12.9695 -1.53001 -0.0814941 13.9155 -0.810988 0.520685 15.1097 -0.663578
0.265468 6.24632 -0.788546 0.218089 15.466 -1.35721 -0.120852 10.3647 -0.192642 0.42836
15.317 -1.33249 0.245758 11.692 -0.741676 0.431428 13.7399 -1.61257 0.210236 12.3124
-1.03043 0.880832 13.586 -1.52126 -0.121685 12.6024 -0.402018 0.373977 15.5796 -1.23803
0.465532 6.78378 -1.19398 -0.0273817 15.0044 -2.46348 0.263721 10.3218 0.0687299 -0.152618
14.1677 -1.12015 0.346937 13.3738 -1.58105 0.271949 13.3988 -1.99614 1.01039 13.4912
-2.44462 0.242089 12.7229 -0.454248 -0.531432 12.9993 -2.15189 -0.182351 13.2604 -0.351907
-0.82554 12.0832 -2.18414 0.561292 14.3134 -1.44018 0.202705 14.9497 -0.954362 0.478082
6.84031 -0.983012 -0.375042 14.8345 -1.8817 1.32344 12.9411 -2.33018 0.67595 10.281
-0.730267 -0.778625 13.4836 -1.18365 -0.604435 13.6367 -2.59006 0.44811 11.8666 -0.711316
-0.671753 14.5958 -2.30266 0.505009 13.1401 -2.2969 0.167667 12.9547 -0.666902 -0.404016
15.3972 -1.62187 -0.0683943 14.6917 -2.3064 0.677228 13.9024 -2.48139 1.34674 13.7133
-0.725187 -0.299914 15.2747 -0.979015 0.079496 5.65496 -0.642928 -0.579359 10.3682 -1.35904
-0.965863 14.5713 -1.70865 0.679987 13.9224 -1.64666 0.530941 13.1531 -1.29227 -0.544719
15.3812 -2.43885 0.373566 15.9935 -3.02043 0.866822 13.3993 -1.63631 -0.237358 14.8161
-3.21077 0.886205 14.3784 -1.89817 1.03703 13.3293 -1.01446 -0.217311 14.2657 -1.88167
1.28187 13.7866 -0.589703 -0.142997 14.8374 -3.25077 0.650831 14.3861 -2.07879 -0.102584
14.7564 -1.22419 -0.475861 6.1571 -1.05014 -0.338033 15.4186 -3.64048 0.643141 14.9324
-2.427 0.107238 10.1913 -1.09532 -0.716559 14.0852 -2.37708 0.435409 12.717 -1.25193
-0.893716 14.5071 -1.84662 1.06088 13.7112 -1.4998 -0.0797386 14.0756 -2.22969 1.63363
13.2156 -1.08323 -0.903112 15.4122 -3.56024 1.10219 15.5062 -2.88339 0.350444 12.4613
-0.431752 -0.535854 14.6557 -1.96982 1.11876 16.4507 -2.16119 0.618006 14.1492 -1.81081
0.343137 7.01937 -1.30666 -0.615777 15.0951 -1.32895 -0.503681 11.0053 -0.864057 -1.20374
14.4237 -2.75974 -0.348831 14.7509 -2.6119 0.32134 13.8807 -0.886516 -1.27552 14.667
-1.90278 1.31514 12.2422 -0.853076 -0.0662208 15.7168 -3.24042 0.948604 15.5368 -2.01384
1.79452 15.2131 -2.44452 1.00208 13.8722 -0.960204 -1.2952 17.0951 -2.50971 1.56359
13.426 -1.67721 0.527523 15.6714 -1.93537 1.06585 16.4799 -1.29691 1.04532 13.816
-0.241337 -1.14303 14.9805 -0.944761 -0.36884 5.5661 -1.12308 -0.440814 10.7855 -0.996825
-1.01696 16.7093 -2.39914 1.03968 14.4255 -2.19363 -0.102788 15.5317 -2.81164 1.40159
14.4151 -0.572857 -0.774613 15.7296 -0.912451 1.47619 15.6601 -2.60454 0.38566 14.4211
-0.925394 -1.28723 17.4204 -2.13848 1.58027 15.3978 -2.18004 1.1958 15.7448 -2.47871
1.80355 13.6973 -1.08414 -1.40107 13.4001 -1.0378 -0.137735 17.0069 -1.12858 1.1632
17.3225 -2.03953 0.941778 14.8077 -0.371706 -1.78988 16.0907 -2.01375 1.5332 15.3644
-2.52098 1.1574 16.2137 -2.67874 1.33865 15.5796 -1.25722 -0.539554 16.8732 -1.83839
1.1625 4.43201 -1.035 0.129585 15.8467 -0.806732 -2.49475 14.7919 -2.32647 0.456395
15.641 -1.60181 1.20146 15.0096 -1.52199 0.375274 10.0992 -1.04693 -0.110854 15.2725
-2.11045 0.903093 12.5252 -1.28092 -0.654049 15.1504 -2.0299 1.74288 15.052 -1.72435
-0.872793 17.6024 -1.93738 0.707585 14.5042 -0.30062 -2.46703 16.5168 -1.42907 0.987711
16.4339 -2.2013 1.76805 14.7604 -1.88403 0.68362 15.3381 -2.62763 0.384805 14.8134
-0.590016 -1.09577 15.7803 -1.72778 1.31554 14.6251 -0.708369 -1.54942 18.1166 -2.19391
0.67337 16.285 -1.90319 0.977587 14.6035 -0.723984 -1.43858 14.4501 -1.03974 -0.470863
4.4234 -1.07737 0.173884 15.3809 -2.15248 1.19486 10.0409 -1.26969 0.273591 16.4153
-2.28705 1.28676 12.5028 -1.80269 -0.0355052 16.9956 -1.35588 0.75322 15.0792 -0.974129
0.273843 16.6899 -1.61793 1.61076 17.346 -2.36119 1.70754 13.3818 -2.22023 -0.322773
14.7926 -0.0721744 -1.77795 18.7251 -2.42631 0.439024 17.6245 -2.37856 1.05536 14.3229
-2.24977 -0.757775 13.742 -0.861821 -0.608504 14.5495 -2.12355 0.734475 17.7662 -2.7216
0.220998 15.1609 -0.63305 -1.83622 16.5745 -1.78865 1.2169 17.6535 -1.6353 0.77451
14.7483 -1.03984 -0.985285 14.9278 -0.933387 0.212454 18.4553 -2.4794 0.786207 14.5766
-1.08881 -0.0625018 4.33149 -0.790361 0.226712 15.7381 -1.02206 -0.536022 14.9611 -2.0169
1.5025 7.7727 -1.48054 0.361703 14.5526 -2.04887 1.30512 11.1232 -1.99623 0.151296
14.042 -0.460032 -0.982458 17.2619 -1.72495 0.576255 15.6987 -1.7769 -1.78282 18.6912
-2.39617 0.980827 15.6598 -2.16438 1.6276 13.0769 -1.78768 -0.130166 15.4541 -1.61948
0.99351 13.2855 -1.34031 -0.214591 15.3943 -1.70965 0.177911 15.279 -0.823095 -0.351859
18.2113 -2.66141 0.813818 14.9609 -1.05726 -0.934667 17.3985 -1.46842 -0.274924 13.3694
-1.62278 -0.0557567 15.5911 -0.990336 -1.74415 17.2783 -2.18817 0.289236 16.1796 -1.08383
1.39025 15.1511 -0.666667 0.233902 4.93019 -0.45204 -0.0674686 14.9255 -1.34049 1.32913
9.05124 -1.31505 0.127827 15.3074 -1.50952 1.34699 10.4997 -1.52749 0.712121 17.6029
-1.23433 1.02711 15.5692 -1.33623 -1.21858 14.5717 -0.968772 0.0164706 17.2593 -1.30554
0.355061 15.8074 -1.56088 1.09597 16.002 -2.70914 0.506777 12.5027 -1.08237 0.972876
16.2041 -1.82194 -0.3545 17.298 -2.17295 0.69557 15.4585 -0.679349 -1.05007 15.6645
-1.51167 1.29935 14.2989 -1.54293 0.662212 17.1952 -1.61719 -0.766613 15.642 -1.39835
0.0310634 15.9443 -0.903484 -1.51406 17.3877 -1.22966 0.409384 15.8254 -1.29295 1.27761
14.1505 -1.5292 0.477618 16.4036 -2.63654 -0.119377 15.9574 -0.500638 0.453725 15.1835
-1.25307 -0.056599 4.19204 -0.319825 0.167626 16.9541 -1.37611 0.774945 7.91639 -1.13182
0.483107 15.2984 -1.54822 -0.233562 17.3249 -2.27192 0.528439 14.7896 -1.22527 1.44194
16.4216 -0.759773 0.119347 14.1408 -1.12595 0.639329 15.2709 -1.60292 1.26627 10.7215
-1.0164 0.736209 15.663 -0.947328 0.574523 16.5552 -0.973163 -1.37304 12.8196 -1.17297
0.868398 14.6018 -1.50334 0.70019 13.9841 -1.51918 0.58801 16.3736 -0.485387 -0.971143
13.5239 -1.66845 0.882532 14.7055 -1.29262 1.19319 15.7835 -0.889229 0.40716 16.196
-1.2402 -0.508591 16.5941 -2.17098 0.0402322 16.4309 -2.4028 0.536634 15.645 -1.35404
1.0441 14.8652 -1.30436 0.800233 16.5728 -1.12949 -0.670838 17.4923 -0.670776 0.326717
15.5165 -0.347381 0.424002 14.6439 -1.55791 0.496121 15.1879 -0.225974 0.490693 2.81197
-0.351433 0.272655 16.7082 -0.565013 1.23991 13.895 -1.25733 0.264795 8.26951 -1.35559
0.540241 15.1298 -1.20018 0.873536 16.3363 -1.7622 -0.800171 15.1803 -0.62728 0.473813
15.4058 -1.00055 1.20454 9.81959 -1.28661 0.61173 15.7642 -1.40988 1.06543 12.3866
-1.43255 0.342601 15.7899 -1.62119 0.373577 15.1145 -0.159209 0.138604 14.9263 -0.962132
-0.838043 15.129 -1.47667 0.86479 16.6102 -1.86414 0.124491 14.4166 -1.32434 0.893658
16.3377 -0.966263 0.408552 15.8212 -1.44242 0.0810867 13.0335 -1.76957 -0.0578852 15.8844
-1.43723 -0.364681 15.9009 -0.691648 0.536503 15.755 -1.26752 0.907724 13.7997 -1.38278
0.026668 16.0404 -1.71743 0.587248 15.2842 -0.780456 -0.100757 16.5742 -2.09918 -0.0587954
16.2886 -0.146037 0.283785 13.4964 -1.38297 0.318468 15.376 -1.81129 0.466522 14.9835
-0.0605382 0.334906 4.60803 -0.644479 0.611113 15.6042 -0.26515 0.65922 8.66048 -2.00075
1.29391 16.1413 -0.251907 0.785455 10.5644 -2.05255 1.07738 16.7118 -0.957177 0.212877
15.7221 -1.32418 -0.0931386 15.0339 -0.763172 0.0178486 15.3259 -1.04633 0.420874 13.2542
-0.240836 1.03545 15.7743 -0.784964 -0.133592 15.2301 -1.99471 0.717102 13.521 -1.61043
0.671049 13.8557 -0.878908 -0.353511 13.4836 -1.70139 1.09135 14.1681 -0.448679 0.910543
15.2953 -0.197356 0.677001 12.0227 -1.49632 0.511822 18.115 -1.95097 -0.431383 14.9111
-0.60561 0.914281 11.9728 -1.58013 0.295514 14.7953 -0.0242027 -0.291628 15.05 -1.72109
1.11335 14.3789 -0.693248 -0.0172593 15.935 -1.80642 0.800431 17.6508 -0.631158 -0.304609
15.4712 -0.879023 -0.425766 16.9013 -0.526349 0.410571 14.2926 -2.46219 0.0110828 14.1549
-0.669797 0.396949 15.4081 0.0201149 0.442162 4.4605 -0.737011 0.523624 16.5265 -0.649856
-0.368217 16.3118 -0.346558 -0.191789 15.494 -0.0260566 0.774045 6.02801 -2.15004 1.1771
16.213 -0.31985 -0.281107 10.2132 -2.27605 1.20828 14.7516 0.355193 -0.336958 15.6404
-2.13577 0.539667 12.2267 -1.88559 1.42053 15.3131 -0.466743 0.590955 13.8304 -0.461923
0.211956 14.2452 -1.78021 -0.0893823 17.919 -1.5162 0.0582633 15.1457 -0.375323 0.430467
15.0714 -0.23111 0.599285 12.1781 -1.09924 1.97855 17.6137 -1.18719 -0.592108 16.9523
0.323448 -0.351704 14.9261 -1.3649 0.230136 14.981 0.473805 -0.356039 15.3992 -0.847391
-0.339549 11.7602 -1.70399 2.12055 15.0716 -1.84935 -0.16028 15.0475 -0.213537 -0.373059
14.168 -0.122347 0.0556355 14.0359 -0.488251 1.17617 15.8067 -0.102968 -0.744755 17.0346
-0.411591 -0.610981 13.2879 -2.28306 1.76802 15.3208 -0.850905 0.436957 4.15928 -0.53212
0.0561645 16.7259 0.209914 0.472357 8.20755 -1.55489 0.448749 14.7963 -1.45804 -0.597809
14.2831 0.063464 0.0216743 16.5256 0.307788 1.17588 15.081 0.507553 -0.0656532 9.50884
-1.68087 0.817542 15.9911 0.2058 -0.938317 14.842 -0.763492 0.229301 12.9161 -1.05573
1.28061 15.2145 -0.760213 0.535218 11.5814 -1.75181 0.731902 16.8865 0.224211 0.23758
17.8813 -1.16238 -0.591155 16.0355 -1.33723 -0.258607 15.1404 0.529485 -0.646212 11.0295
-1.01461 0.684492 15.8996 0.301529 0.106367 14.6078 0.174147 -0.872166 16.1181 -1.09939
-0.264245 15.6758 0.000717161 -0.522823 14.408 -0.688366 -0.843935 13.103 -1.84012 0.807579
13.6873 -0.623497 0.0607442 13.1446 -1.62265 0.469824 15.1395 0.338335 1.10242 14.8437
-0.0336197 0.428195 16.1242 0.136568 -0.670297 13.5844 -1.72858 0.0695712 15.7576 0.293146
0.284569 14.1467 -0.755787 0.0501309 12.6596 -0.267027 0.511354 15.9913 -0.798318 -0.40153
16.7678 -1.34178 -0.840592 15.472 0.0756846 -0.461109 14.0954 -0.601145 -0.670085 3.30838
-0.280164 0.321055 16.0963 0.140797 0.0803322 7.63399 -0.896602 0.933225 14.7696 0.584649
-0.550957 16.3866 -1.62749 0.0568288 16.2141 0.540709 0.789469 16.7824 0.752383 -0.430839
10.6658 -0.706735 1.38701 13.8288 -0.533009 0.158416 15.0357 0.191717 0.746733 15.957
-0.283695 -0.546375 13.0807 -1.34987 1.41414 15.6299 0.220847 0.35514 16.5453 0.522794
-0.179903 13.4889 -1.42779 1.17205 14.6073 -0.191671 -0.733717 16.2541 0.172706 -0.805742
16.3179 0.602032 -0.23276 15.717 0.56606 -0.721199 13.2871 -1.72731 0.343036 15.4585
-0.513924 -0.665893 15.3411 0.488554 -0.341494 14.4336 -1.93256 1.13353 16.7515 0.855194
0.550555 17.2432 -1.03445 -0.125908 16.3077 -0.09953 -0.430172 16.4958 -1.42824 -1.26145
15.3436 -0.258316 -0.218855 15.8928 0.744593 0.0162809 14.5787 -1.31231 1.13103 15.0136
0.579081 -0.358557 14.8977 -0.910631 -1.14247 15.3322 0.564746 -0.601453 14.0606 -0.751607
0.217028 14.2056 1.21049 0.296656 16.8109 -0.157418 -0.179431 3.73975 -0.0776314 0.608322
15.8276 -0.0918879 0.085872 15.0787 0.77743 -0.706844 8.25464 -0.708881 1.26648 14.4991
-0.0487276 -0.835787 16.2443 0.150975 0.432861 10.2884 -0.0894967 1.41463 14.6393 -0.512985
0.853002 17.2213 0.80671 0.781995 17.548 -0.264171 -0.552419 11.6907 -1.07613 1.51366
14.5036 -0.384955 -0.116103 15.4443 1.59526 -1.19254 14.1177 -0.835181 -1.47329 15.2381
0.867993 -1.16954 16.7078 -0.4132 -0.328735 13.3799 -1.94407 1.37102 17.7029 -0.883942
-0.538945 17.3734 -0.661648 -0.366979 15.0708 -1.66421 0.547123 15.9337 0.915957 -0.342278
17.1708 0.489523 -1.10134 16.756 -0.0869584 -0.954486 16.7272 0.453142 0.363472 14.2385
-2.10437 0.918856 16.0021 0.456136 -1.05301 15.0365 0.535129 -0.978912 14.9651 -1.29557
-0.380599 14.8839 1.71287 -0.784849 14.5662 0.968477 -0.340076 14.435 -1.16251 0.621776
14.9819 -0.98916 0.236959 16.0177 1.24388 -0.0644016 15.1639 -0.714171 -1.32156 16.0558
0.720409 -0.577326 15.2979 0.376462 -0.0875261 3.68434 -0.462084 0.6414 8.18141 -1.18695
1.32918 16.1081 0.63048 -0.0760383 16.4124 -0.213877 -0.697458 16.6325 0.838888 0.283852
14.7553 -0.716595 0.67533 9.42179 -0.217578 1.29298 17.6319 -0.674703 -1.82307 14.201
0.28829 -0.43367 17.4283 0.488934 0.363437 15.7592 -0.610991 -0.156527 14.72 1.87638
-1.11066 14.3497 -0.83361 -0.520349 11.3962 -1.15675 1.18012 15.1846 1.34573 -1.37711
17.3655 0.374379 -0.360215 15.3945 0.58914 -1.2977 14.581 0.402564 -0.33432 12.6126
-2.13343 0.91975 17.0486 0.126631 -0.12714 14.8765 1.35979 -0.104864 15.3396 -1.41
0.599196 14.6668 0.292188 -0.471805 16.0581 0.145708 -1.58798 13.4782 -1.41088 0.16495
16.0625 0.0377564 0.22641 13.7865 2.07844 -0.730266 15.0272 -0.829043 -0.219827 14.5269
-0.938507 0.270683 15.599 -1.41276 -0.586737 14.6991 2.2418 -0.143507 15.7252 0.349239
-0.410682 13.6013 -1.34591 -0.556158 15.3388 0.416712 -0.256971 16.843 -0.35736 -2.55884
15.4639 0.721471 -0.902998 16.6002 -0.204775 -1.37305 14.0955 0.314912 -0.307342 4.1196
-1.14669 0.633408 16.161 0.533497 -0.0312822 15.4865 -0.0154888 -0.143996 15.0034 -0.867776
-0.696968 15.8957 1.00171 -0.0555771 6.71801 -1.53432 1.30329 15.0973 -0.761684 -0.293886
15.0431 1.99337 -1.06111 15.16 2.29078 -0.427144 10.794 -0.704042 1.42236 15.5681
-0.529357 0.249282 12.5459 -1.18484 1.42271 15.5458 -0.166648 -0.389144 14.4336 -0.212832
-1.55544 15.972 -1.13252 -0.647414 16.3631 1.38751 -0.040075 12.4439 -1.64697 1.11087
16.1611 0.665455 -2.33192 14.5091 -0.420726 0.240483 13.6102 0.0948549 -0.596356 14.7112
2.34842 -0.812722 13.3694 -0.0040219 0.666504 15.3736 -0.573115 -1.13291 15.1294 -1.5473
-0.35941 13.5775 1.70016 -0.0641141 15.1214 0.0266862 -0.439073 14.1733 0.327873 -0.487396
15.4128 -1.0178 -0.745829 16.5125 1.72717 -0.0691418 14.4502 -1.37994 -0.96609 14.1867
0.228583 -0.067156 14.3378 -0.0885917 -0.548411 15.3206 2.60552 -0.544672 13.6906 -0.780854
0.993243 15.6749 -1.03127 -1.56007 4.02911 -1.26628 0.154766 15.586 -0.703913 -0.794745
14.792 2.15546 0.030275 7.43009 -1.35985 0.187167 8.52653 -0.785576 -0.0367373 14.3361
-0.413157 -0.167055 15.3325 0.955362 -1.06273 11.2017 -0.704589 -0.106244 15.8405 0.66088
-0.761634 15.0911 0.068078 -1.38059 15.237 -1.17776 -1.37613 15.0433 -0.485243 -0.930873
13.4721 0.542664 -0.0417179 11.3189 -0.853656 -0.324472 14.4364 0.228913 0.148336 13.9945
0.0761421 -0.401845 14.0797 0.0220496 -0.474425 17.167 2.00747 -0.548116 14.6076 2.12292
0.204148 13.7335 -1.19323 0.95087 13.8595 0.072811 -0.63574 15.3368 -1.62141 -0.742082
14.7419 -0.0678397 -0.287702 16.2136 0.451822 -1.37773 13.6537 -0.932708 -0.704805 13.4504
-0.607066 0.364297 15.8822 1.66945 -0.154057 14.2978 0.54146 -0.745826 16.3168 0.854121
-1.30122 14.5343 0.833229 -0.54367 14.1314 -1.12624 -0.141534 14.1809 1.56892 -0.447016
13.5704 -1.47234 -0.975027 15.7809 -0.241153 0.625978 4.35437 -1.21456 0.031951 7.82229
-1.14741 -0.0376755 15.5861 -0.0452657 0.24994 14.5326 0.455611 -0.238705 10.0876 -0.519704
-0.00741167 9.82916 -0.210594 0.294485 15.154 -1.74911 -1.3222 15.2818 0.284058 -0.104129
15.7655 0.470672 -0.388196 12.3973 -0.694596 0.389338 14.2139 -0.477776 0.881076 14.5245
1.53909 0.09628 14.2853 0.144877 0.123856 15.0982 1.24357 -1.83782 13.3035 -0.195033
0.278103 15.1774 -0.272603 0.251419 14.4286 -1.65109 -0.942373 14.3861 0.594531 -1.49416
13.777 1.64014 -1.09601 13.2753 -0.39905 0.246713 15.0387 0.831922 0.130423 13.1494
1.32266 -0.0498632 14.4443 0.233935 0.0646972 15.1724 -0.199427 0.829095 15.475 1.17247
-0.0619088 16.1823 0.301392 0.575356 13.8311 0.649113 -0.730438 15.0656 -0.986564 -0.201845
13.4961 -1.54382 -0.110891 6.00863 -1.56625 -0.35076 15.5152 1.0313 -0.784999 9.36018
-1.42303 -0.655061 13.9494 -0.0567434 0.0234941 9.64151 -0.651597 -0.43535 9.55427 -0.194597
-0.182864 14.2347 -1.95676 -0.77972 15.5468 0.147791 -0.0451461 15.5828 0.826828 0.0376592
15.6611 2.02804 -1.25983 12.3102 -0.941423 -0.207857 15.1915 -0.444475 0.667154 15.3726
1.25541 -0.904502 15.1009 0.260176 0.00354237 15.0306 1.67692 -0.829658 16.2204 0.714258
1.0307 12.7948 1.06369 0.125972 12.8937 -0.550749 -0.290314 14.6077 -0.758598 -0.597808
13.9323 0.526723 0.107614 14.3725 1.06216 -0.844768 12.7228 -0.240043 -0.299302 14.1751
1.05726 0.182162 15.2236 0.0200758 0.190876 14.0393 -0.436797 0.334849 14.4988 0.0337144
0.70895 14.7441 1.89229 -0.53373 13.8714 -1.0139 -0.654132 15.7271 1.15058 0.196233
16.4485 1.40078 -0.795905 4.55948 -1.93831 -0.105933 9.22196 -1.85811 -0.320442 15.1365
0.303193 1.31736 10.4544 -0.978045 -0.41191 15.0693 0.514194 0.420934 15.0232 1.32336
0.152255 14.9928 -1.05692 -1.0466 10.8177 -0.626323 -0.398351 15.1251 1.60525 0.536077
15.4081 -0.333945 0.786852 15.0919 0.518628 0.295712 14.5595 1.05594 -0.0361229 12.8702
-0.978239 -0.552122 15.1317 -0.153693 -0.987262 15.3608 0.637106 0.948479 14.7934 2.3799
-0.425504 12.7199 -0.673052 -0.710767 15.1027 0.37258 0.547717 16.1859 1.11908 0.184945
13.4092 -0.522635 -0.53131 14.6635 0.582404 1.47281 16.2398 0.818822 0.017753 15.9913
-0.128088 -0.707744 16.1694 0.264352 1.36656 16.7108 1.2838 -0.302881 16.0842 0.155864
0.703833 14.4369 0.927368 0.7615 13.6798 -0.275599 -0.160936 16.0153 0.82511 0.209489
4.86884 -1.88853 0.523301 14.5861 0.591394 1.12651 14.9322 2.52357 -0.13523 9.77228
-1.94972 0.750342 15.5621 0.151056 0.514054 11.5587 -1.21023 0.499736 14.7809 0.120028
0.312649 16.369 1.82367 -0.508597 11.3011 -1.3911 0.476127 14.0102 0.695715 1.58443
14.1937 -0.993167 0.454325 15.5729 0.0111888 0.728373 13.5616 -0.638784 0.485136 16.4889
0.494662 0.177803 15.4284 0.385025 1.0311 15.0751 1.17849 -0.577761 16.7204 0.989526
-0.540577 15.6621 0.0929106 1.07729 15.2055 1.24936 -0.192451 15.2822 0.790177 0.00246404
15.2705 -0.827635 0.11519 15.0371 0.404262 1.05878 14.3229 2.5513 0.412964 15.0716
0.430551 0.235136 13.5906 0.86276 1.18889 15.3949 0.141585 -0.317954 17.6618 1.0125
-0.61113 16.5587 0.558419 -0.0703411 5.44105 -1.86286 0.596204 10.4926 -1.99354 0.998189
14.7664 1.60408 -0.784872 14.1917 0.659978 -0.309445 12.015 -1.54053 0.642856 15.2541
1.15527 -0.308448 15.0476 0.84655 0.589669 12.8681 -1.76697 0.651021 14.5622 0.174889
0.990007 14.2754 1.63028 -0.678924 14.453 2.35969 -0.164014 15.3408 0.148168 0.826352
14.0997 -1.05522 0.888423 16.2183 0.60866 -0.211714 15.1176 0.485215 -0.371639 15.7448
1.09427 -0.652907 15.7337 0.768805 0.0602714 13.7427 1.0517 0.892711 13.6894 -0.621761
0.712809 14.8668 -0.961229 0.124311 14.9881 1.2107 -0.603412 12.6124 0.983115 -0.0299978
16.3572 0.847218 0.234519 15.1669 0.0397765 -0.469335 17.1343 1.28235 0.289477 15.068
1.53133 0.38711 12.8406 0.497433 0.926539 13.8221 2.0949 -0.258703 16.2039 -0.109042
0.285754 15.3491 1.63662 0.423878 15.7497 1.58144 -0.61976 4.99948 -2.02172 0.337271
16.4389 0.146661 1.00134 9.2701 -2.05567 0.932358 14.2024 0.845922 -0.834644 11.4547
-1.96412 1.1909 13.2615 -1.35003 0.899384 16.9698 0.800818 0.612211 13.7599 1.03971
0.491268 13.481 -1.25514 0.744465 17.9102 0.928968 0.006928 13.963 0.866829 -0.862626
16.1724 1.28188 -0.450719 14.2079 -0.882658 0.901622 13.6184 1.38581 0.58637 13.47
1.37118 0.848462 14.4304 2.07143 0.191246 13.4411 -0.917764 0.344098 14.0165 0.344306
-0.308922 14.6248 1.53195 -0.744472 14.118 -0.0540883 0.856039 15.9146 1.38987 0.426821
15.9031 1.78904 -0.565871 16.1438 1.50079 -0.441271 15.551 -0.596251 -0.652657 13.8991
-0.141443 0.901107 15.4115 1.67888 -0.827348 14.9631 1.16262 -1.38029 4.12895 -1.76654
0.344815 11.8818 0.975072 0.662833 9.40727 -1.81228 0.560053 11.4844 -2.26969 0.297064