# vtk DataFile Version 2.0
sampleSurface
ASCII
DATASET POLYDATA
POINTS 1326 float
0 -2.5 0 0 -2.5 0.1 0 -2.4 0.1 0 -2.4
0 0 -2.3 0.1 0 -2.3 0 0 -2.2 0.1
0 -2.2 0 0 -2.1 0.1 0 -2.1 0 0
-2 0.1 0 -2 0 0 -1.9 0.1 0 -1.9
0 0 -1.8 0.1 0 -1.8 0 0 -1.7 0.1
0 -1.7 0 0 -1.6 0.1 0 -1.6 0 0
-1.5 0.1 0 -1.5 0 0 -1.4 0.1 0 -1.4
0 0 -1.3 0.1 0 -1.3 0 0 -1.2 0.1
0 -1.2 0 0 -1.1 0.1 0 -1.1 0 0
-1 0.1 0 -1 0 0 -0.9 0.1 0 -0.9
0 0 -0.8 0.1 0 -0.8 0 0 -0.7 0.1
0 -0.7 0 0 -0.6 0.1 0 -0.6 0 0
-0.5 0.1 0 -0.5 0 0 -0.4 0.1 0 -0.4
0 0 -0.3 0.1 0 -0.3 0 0 -0.2 0.1
0 -0.2 0 0 -0.1 0.1 0 -0.1 0 0
0 0.1 0 0 0 0 0.1 0.1 0 0.1
0 0 0.2 0.1 0 0.2 0 0 0.3 0.1
0 0.3 0 0 0.4 0.1 0 0.4 0 0
0.5 0.1 0 0.5 0 0 0.6 0.1 0 0.6
0 0 0.7 0.1 0 0.7 0 0 0.8 0.1
0 0.8 0 0 0.9 0.1 0 0.9 0 0
1 0.1 0 1 0 0 1.1 0.1 0 1.1
0 0 1.2 0.1 0 1.2 0 0 1.3 0.1
0 1.3 0 0 1.4 0.1 0 1.4 0 0
1.5 0.1 0 1.5 0 0 1.6 0.1 0 1.6
0 0 1.7 0.1 0 1.7 0 0 1.8 0.1
0 1.8 0 0 1.9 0.1 0 1.9 0 0
2 0.1 0 2 0 0 2.1 0.1 0 2.1
0 0 2.2 0.1 0 2.2 0 0 2.3 0.1
0 2.3 0 0 2.4 0.1 0 2.4 0 0
2.5 0.1 0 2.5 0 0 -2.5 0.2 0 -2.4
0.2 0 -2.3 0.2 0 -2.2 0.2 0 -2.1 0.2
0 -2 0.2 0 -1.9 0.2 0 -1.8 0.2 0
-1.7 0.2 0 -1.6 0.2 0 -1.5 0.2 0 -1.4
0.2 0 -1.3 0.2 0 -1.2 0.2 0 -1.1 0.2
0 -1 0.2 0 -0.9 0.2 0 -0.8 0.2 0
-0.7 0.2 0 -0.6 0.2 0 -0.5 0.2 0 -0.4
0.2 0 -0.3 0.2 0 -0.2 0.2 0 -0.1 0.2
0 0 0.2 0 0.1 0.2 0 0.2 0.2 0
0.3 0.2 0 0.4 0.2 0 0.5 0.2 0 0.6
0.2 0 0.7 0.2 0 0.8 0.2 0 0.9 0.2
0 1 0.2 0 1.1 0.2 0 1.2 0.2 0
1.3 0.2 0 1.4 0.2 0 1.5 0.2 0 1.6
0.2 0 1.7 0.2 0 1.8 0.2 0 1.9 0.2
0 2 0.2 0 2.1 0.2 0 2.2 0.2 0
2.3 0.2 0 2.4 0.2 0 2.5 0.2 0 -2.5
0.3 0 -2.4 0.3 0 -2.3 0.3 0 -2.2 0.3
0 -2.1 0.3 0 -2 0.3 0 -1.9 0.3 0
-1.8 0.3 0 -1.7 0.3 0 -1.6 0.3 0 -1.5
0.3 0 -1.4 0.3 0 -1.3 0.3 0 -1.2 0.3
0 -1.1 0.3 0 -1 0.3 0 -0.9 0.3 0
-0.8 0.3 0 -0.7 0.3 0 -0.6 0.3 0 -0.5
0.3 0 -0.4 0.3 0 -0.3 0.3 0 -0.2 0.3
0 -0.1 0.3 0 0 0.3 0 0.1 0.3 0
0.2 0.3 0 0.3 0.3 0 0.4 0.3 0 0.5
0.3 0 0.6 0.3 0 0.7 0.3 0 0.8 0.3
0 0.9 0.3 0 1 0.3 0 1.1 0.3 0
1.2 0.3 0 1.3 0.3 0 1.4 0.3 0 1.5
0.3 0 1.6 0.3 0 1.7 0.3 0 1.8 0.3
0 1.9 0.3 0 2 0.3 0 2.1 0.3 0
2.2 0.3 0 2.3 0.3 0 2.4 0.3 0 2.5
0.3 0 -2.5 0.4 0 -2.4 0.4 0 -2.3 0.4
0 -2.2 0.4 0 -2.1 0.4 0 -2 0.4 0
-1.9 0.4 0 -1.8 0.4 0 -1.7 0.4 0 -1.6
0.4 0 -1.5 0.4 0 -1.4 0.4 0 -1.3 0.4
0 -1.2 0.4 0 -1.1 0.4 0 -1 0.4 0
-0.9 0.4 0 -0.8 0.4 0 -0.7 0.4 0 -0.6
0.4 0 -0.5 0.4 0 -0.4 0.4 0 -0.3 0.4
0 -0.2 0.4 0 -0.1 0.4 0 0 0.4 0
0.1 0.4 0 0.2 0.4 0 0.3 0.4 0 0.4
0.4 0 0.5 0.4 0 0.6 0.4 0 0.7 0.4
0 0.8 0.4 0 0.9 0.4 0 1 0.4 0
1.1 0.4 0 1.2 0.4 0 1.3 0.4 0 1.4
0.4 0 1.5 0.4 0 1.6 0.4 0 1.7 0.4
0 1.8 0.4 0 1.9 0.4 0 2 0.4 0
2.1 0.4 0 2.2 0.4 0 2.3 0.4 0 2.4
0.4 0 2.5 0.4 0 -2.5 0.5 0 -2.4 0.5
0 -2.3 0.5 0 -2.2 0.5 0 -2.1 0.5 0
-2 0.5 0 -1.9 0.5 0 -1.8 0.5 0 -1.7
0.5 0 -1.6 0.5 0 -1.5 0.5 0 -1.4 0.5
0 -1.3 0.5 0 -1.2 0.5 0 -1.1 0.5 0
-1 0.5 0 -0.9 0.5 0 -0.8 0.5 0 -0.7
0.5 0 -0.6 0.5 0 -0.5 0.5 0 -0.4 0.5
0 -0.3 0.5 0 -0.2 0.5 0 -0.1 0.5 0
0 0.5 0 0.1 0.5 0 0.2 0.5 0 0.3
0.5 0 0.4 0.5 0 0.5 0.5 0 0.6 0.5
0 0.7 0.5 0 0.8 0.5 0 0.9 0.5 0
1 0.5 0 1.1 0.5 0 1.2 0.5 0 1.3
0.5 0 1.4 0.5 0 1.5 0.5 0 1.6 0.5
0 1.7 0.5 0 1.8 0.5 0 1.9 0.5 0
2 0.5 0 2.1 0.5 0 2.2 0.5 0 2.3
0.5 0 2.4 0.5 0 2.5 0.5 0 -2.5 0.6
0 -2.4 0.6 0 -2.3 0.6 0 -2.2 0.6 0
-2.1 0.6 0 -2 0.6 0 -1.9 0.6 0 -1.8
0.6 0 -1.7 0.6 0 -1.6 0.6 0 -1.5 0.6
0 -1.4 0.6 0 -1.3 0.6 0 -1.2 0.6 0
-1.1 0.6 0 -1 0.6 0 -0.9 0.6 0 -0.8
0.6 0 -0.7 0.6 0 -0.6 0.6 0 -0.5 0.6
0 -0.4 0.6 0 -0.3 0.6 0 -0.2 0.6 0
-0.1 0.6 0 0 0.6 0 0.1 0.6 0 0.2
0.6 0 0.3 0.6 0 0.4 0.6 0 0.5 0.6
0 0.6 0.6 0 0.7 0.6 0 0.8 0.6 0
0.9 0.6 0 1 0.6 0 1.1 0.6 0 1.2
0.6 0 1.3 0.6 0 1.4 0.6 0 1.5 0.6
0 1.6 0.6 0 1.7 0.6 0 1.8 0.6 0
1.9 0.6 0 2 0.6 0 2.1 0.6 0 2.2
0.6 0 2.3 0.6 0 2.4 0.6 0 2.5 0.6
0 -2.5 0.7 0 -2.4 0.7 0 -2.3 0.7 0
-2.2 0.7 0 -2.1 0.7 0 -2 0.7 0 -1.9
0.7 0 -1.8 0.7 0 -1.7 0.7 0 -1.6 0.7
0 -1.5 0.7 0 -1.4 0.7 0 -1.3 0.7 0
-1.2 0.7 0 -1.1 0.7 0 -1 0.7 0 -0.9
0.7 0 -0.8 0.7 0 -0.7 0.7 0 -0.6 0.7
0 -0.5 0.7 0 -0.4 0.7 0 -0.3 0.7 0
-0.2 0.7 0 -0.1 0.7 0 0 0.7 0 0.1
0.7 0 0.2 0.7 0 0.3 0.7 0 0.4 0.7
0 0.5 0.7 0 0.6 0.7 0 0.7 0.7 0
0.8 0.7 0 0.9 0.7 0 1 0.7 0 1.1
0.7 0 1.2 0.7 0 1.3 0.7 0 1.4 0.7
0 1.5 0.7 0 1.6 0.7 0 1.7 0.7 0
1.8 0.7 0 1.9 0.7 0 2 0.7 0 2.1
0.7 0 2.2 0.7 0 2.3 0.7 0 2.4 0.7
0 2.5 0.7 0 -2.5 0.8 0 -2.4 0.8 0
-2.3 0.8 0 -2.2 0.8 0 -2.1 0.8 0 -2
0.8 0 -1.9 0.8 0 -1.8 0.8 0 -1.7 0.8
0 -1.6 0.8 0 -1.5 0.8 0 -1.4 0.8 0
-1.3 0.8 0 -1.2 0.8 0 -1.1 0.8 0 -1
0.8 0 -0.9 0.8 0 -0.8 0.8 0 -0.7 0.8
0 -0.6 0.8 0 -0.5 0.8 0 -0.4 0.8 0
-0.3 0.8 0 -0.2 0.8 0 -0.1 0.8 0 0
0.8 0 0.1 0.8 0 0.2 0.8 0 0.3 0.8
0 0.4 0.8 0 0.5 0.8 0 0.6 0.8 0
0.7 0.8 0 0.8 0.8 0 0.9 0.8 0 1
0.8 0 1.1 0.8 0 1.2 0.8 0 1.3 0.8
0 1.4 0.8 0 1.5 0.8 0 1.6 0.8 0
1.7 0.8 0 1.8 0.8 0 1.9 0.8 0 2
0.8 0 2.1 0.8 0 2.2 0.8 0 2.3 0.8
0 2.4 0.8 0 2.5 0.8 0 -2.5 0.9 0
-2.4 0.9 0 -2.3 0.9 0 -2.2 0.9 0 -2.1
0.9 0 -2 0.9 0 -1.9 0.9 0 -1.8 0.9
0 -1.7 0.9 0 -1.6 0.9 0 -1.5 0.9 0
-1.4 0.9 0 -1.3 0.9 0 -1.2 0.9 0 -1.1
0.9 0 -1 0.9 0 -0.9 0.9 0 -0.8 0.9
0 -0.7 0.9 0 -0.6 0.9 0 -0.5 0.9 0
-0.4 0.9 0 -0.3 0.9 0 -0.2 0.9 0 -0.1
0.9 0 0 0.9 0 0.1 0.9 0 0.2 0.9
0 0.3 0.9 0 0.4 0.9 0 0.5 0.9 0
0.6 0.9 0 0.7 0.9 0 0.8 0.9 0 0.9
0.9 0 1 0.9 0 1.1 0.9 0 1.2 0.9
0 1.3 0.9 0 1.4 0.9 0 1.5 0.9 0
1.6 0.9 0 1.7 0.9 0 1.8 0.9 0 1.9
0.9 0 2 0.9 0 2.1 0.9 0 2.2 0.9
0 2.3 0.9 0 2.4 0.9 0 2.5 0.9 0
-2.5 1 0 -2.4 1 0 -2.3 1 0 -2.2
1 0 -2.1 1 0 -2 1 0 -1.9 1
0 -1.8 1 0 -1.7 1 0 -1.6 1 0
-1.5 1 0 -1.4 1 0 -1.3 1 0 -1.2
1 0 -1.1 1 0 -1 1 0 -0.9 1
0 -0.8 1 0 -0.7 1 0 -0.6 1 0
-0.5 1 0 -0.4 1 0 -0.3 1 0 -0.2
1 0 -0.1 1 0 0 1 0 0.1 1
0 0.2 1 0 0.3 1 0 0.4 1 0
0.5 1 0 0.6 1 0 0.7 1 0 0.8
1 0 0.9 1 0 1 1 0 1.1 1
0 1.2 1 0 1.3 1 0 1.4 1 0
1.5 1 0 1.6 1 0 1.7 1 0 1.8
1 0 1.9 1 0 2 1 0 2.1 1
0 2.2 1 0 2.3 1 0 2.4 1 0
2.5 1 0 -2.5 1.1 0 -2.4 1.1 0 -2.3
1.1 0 -2.2 1.1 0 -2.1 1.1 0 -2 1.1
0 -1.9 1.1 0 -1.8 1.1 0 -1.7 1.1 0
-1.6 1.1 0 -1.5 1.1 0 -1.4 1.1 0 -1.3
1.1 0 -1.2 1.1 0 -1.1 1.1 0 -1 1.1
0 -0.9 1.1 0 -0.8 1.1 0 -0.7 1.1 0
-0.6 1.1 0 -0.5 1.1 0 -0.4 1.1 0 -0.3
1.1 0 -0.2 1.1 0 -0.1 1.1 0 0 1.1
0 0.1 1.1 0 0.2 1.1 0 0.3 1.1 0
0.4 1.1 0 0.5 1.1 0 0.6 1.1 0 0.7
1.1 0 0.8 1.1 0 0.9 1.1 0 1 1.1
0 1.1 1.1 0 1.2 1.1 0 1.3 1.1 0
1.4 1.1 0 1.5 1.1 0 1.6 1.1 0 1.7
1.1 0 1.8 1.1 0 1.9 1.1 0 2 1.1
0 2.1 1.1 0 2.2 1.1 0 2.3 1.1 0
2.4 1.1 0 2.5 1.1 0 -2.5 1.2 0 -2.4
1.2 0 -2.3 1.2 0 -2.2 1.2 0 -2.1 1.2
0 -2 1.2 0 -1.9 1.2 0 -1.8 1.2 0
-1.7 1.2 0 -1.6 1.2 0 -1.5 1.2 0 -1.4
1.2 0 -1.3 1.2 0 -1.2 1.2 0 -1.1 1.2
0 -1 1.2 0 -0.9 1.2 0 -0.8 1.2 0
-0.7 1.2 0 -0.6 1.2 0 -0.5 1.2 0 -0.4
1.2 0 -0.3 1.2 0 -0.2 1.2 0 -0.1 1.2
0 0 1.2 0 0.1 1.2 0 0.2 1.2 0
0.3 1.2 0 0.4 1.2 0 0.5 1.2 0 0.6
1.2 0 0.7 1.2 0 0.8 1.2 0 0.9 1.2
0 1 1.2 0 1.1 1.2 0 1.2 1.2 0
1.3 1.2 0 1.4 1.2 0 1.5 1.2 0 1.6
1.2 0 1.7 1.2 0 1.8 1.2 0 1.9 1.2
0 2 1.2 0 2.1 1.2 0 2.2 1.2 0
2.3 1.2 0 2.4 1.2 0 2.5 1.2 0 -2.5
1.3 0 -2.4 1.3 0 -2.3 1.3 0 -2.2 1.3
0 -2.1 1.3 0 -2 1.3 0 -1.9 1.3 0
-1.8 1.3 0 -1.7 1.3 0 -1.6 1.3 0 -1.5
1.3 0 -1.4 1.3 0 -1.3 1.3 0 -1.2 1.3
0 -1.1 1.3 0 -1 1.3 0 -0.9 1.3 0
-0.8 1.3 0 -0.7 1.3 0 -0.6 1.3 0 -0.5
1.3 0 -0.4 1.3 0 -0.3 1.3 0 -0.2 1.3
0 -0.1 1.3 0 0 1.3 0 0.1 1.3 0
0.2 1.3 0 0.3 1.3 0 0.4 1.3 0 0.5
1.3 0 0.6 1.3 0 0.7 1.3 0 0.8 1.3
0 0.9 1.3 0 1 1.3 0 1.1 1.3 0
1.2 1.3 0 1.3 1.3 0 1.4 1.3 0 1.5
1.3 0 1.6 1.3 0 1.7 1.3 0 1.8 1.3
0 1.9 1.3 0 2 1.3 0 2.1 1.3 0
2.2 1.3 0 2.3 1.3 0 2.4 1.3 0 2.5
1.3 0 -2.5 1.4 0 -2.4 1.4 0 -2.3 1.4
0 -2.2 1.4 0 -2.1 1.4 0 -2 1.4 0
-1.9 1.4 0 -1.8 1.4 0 -1.7 1.4 0 -1.6
1.4 0 -1.5 1.4 0 -1.4 1.4 0 -1.3 1.4
0 -1.2 1.4 0 -1.1 1.4 0 -1 1.4 0
-0.9 1.4 0 -0.8 1.4 0 -0.7 1.4 0 -0.6
1.4 0 -0.5 1.4 0 -0.4 1.4 0 -0.3 1.4
0 -0.2 1.4 0 -0.1 1.4 0 0 1.4 0
0.1 1.4 0 0.2 1.4 0 0.3 1.4 0 0.4
1.4 0 0.5 1.4 0 0.6 1.4 0 0.7 1.4
0 0.8 1.4 0 0.9 1.4 0 1 1.4 0
1.1 1.4 0 1.2 1.4 0 1.3 1.4 0 1.4
1.4 0 1.5 1.4 0 1.6 1.4 0 1.7 1.4
0 1.8 1.4 0 1.9 1.4 0 2 1.4 0
2.1 1.4 0 2.2 1.4 0 2.3 1.4 0 2.4
1.4 0 2.5 1.4 0 -2.5 1.5 0 -2.4 1.5
0 -2.3 1.5 0 -2.2 1.5 0 -2.1 1.5 0
-2 1.5 0 -1.9 1.5 0 -1.8 1.5 0 -1.7
1.5 0 -1.6 1.5 0 -1.5 1.5 0 -1.4 1.5
0 -1.3 1.5 0 -1.2 1.5 0 -1.1 1.5 0
-1 1.5 0 -0.9 1.5 0 -0.8 1.5 0 -0.7
1.5 0 -0.6 1.5 0 -0.5 1.5 0 -0.4 1.5
0 -0.3 1.5 0 -0.2 1.5 0 -0.1 1.5 0
0 1.5 0 0.1 1.5 0 0.2 1.5 0 0.3
1.5 0 0.4 1.5 0 0.5 1.5 0 0.6 1.5
0 0.7 1.5 0 0.8 1.5 0 0.9 1.5 0
1 1.5 0 1.1 1.5 0 1.2 1.5 0 1.3
1.5 0 1.4 1.5 0 1.5 1.5 0 1.6 1.5
0 1.7 1.5 0 1.8 1.5 0 1.9 1.5 0
2 1.5 0 2.1 1.5 0 2.2 1.5 0 2.3
1.5 0 2.4 1.5 0 2.5 1.5 0 -2.5 1.6
0 -2.4 1.6 0 -2.3 1.6 0 -2.2 1.6 0
-2.1 1.6 0 -2 1.6 0 -1.9 1.6 0 -1.8
1.6 0 -1.7 1.6 0 -1.6 1.6 0 -1.5 1.6
0 -1.4 1.6 0 -1.3 1.6 0 -1.2 1.6 0
-1.1 1.6 0 -1 1.6 0 -0.9 1.6 0 -0.8
1.6 0 -0.7 1.6 0 -0.6 1.6 0 -0.5 1.6
0 -0.4 1.6 0 -0.3 1.6 0 -0.2 1.6 0
-0.1 1.6 0 0 1.6 0 0.1 1.6 0 0.2
1.6 0 0.3 1.6 0 0.4 1.6 0 0.5 1.6
0 0.6 1.6 0 0.7 1.6 0 0.8 1.6 0
0.9 1.6 0 1 1.6 0 1.1 1.6 0 1.2
1.6 0 1.3 1.6 0 1.4 1.6 0 1.5 1.6
0 1.6 1.6 0 1.7 1.6 0 1.8 1.6 0
1.9 1.6 0 2 1.6 0 2.1 1.6 0 2.2
1.6 0 2.3 1.6 0 2.4 1.6 0 2.5 1.6
0 -2.5 1.7 0 -2.4 1.7 0 -2.3 1.7 0
-2.2 1.7 0 -2.1 1.7 0 -2 1.7 0 -1.9
1.7 0 -1.8 1.7 0 -1.7 1.7 0 -1.6 1.7
0 -1.5 1.7 0 -1.4 1.7 0 -1.3 1.7 0
-1.2 1.7 0 -1.1 1.7 0 -1 1.7 0 -0.9
1.7 0 -0.8 1.7 0 -0.7 1.7 0 -0.6 1.7
0 -0.5 1.7 0 -0.4 1.7 0 -0.3 1.7 0
-0.2 1.7 0 -0.1 1.7 0 0 1.7 0 0.1
1.7 0 0.2 1.7 0 0.3 1.7 0 0.4 1.7
0 0.5 1.7 0 0.6 1.7 0 0.7 1.7 0
0.8 1.7 0 0.9 1.7 0 1 1.7 0 1.1
1.7 0 1.2 1.7 0 1.3 1.7 0 1.4 1.7
0 1.5 1.7 0 1.6 1.7 0 1.7 1.7 0
1.8 1.7 0 1.9 1.7 0 2 1.7 0 2.1
1.7 0 2.2 1.7 0 2.3 1.7 0 2.4 1.7
0 2.5 1.7 0 -2.5 1.8 0 -2.4 1.8 0
-2.3 1.8 0 -2.2 1.8 0 -2.1 1.8 0 -2
1.8 0 -1.9 1.8 0 -1.8 1.8 0 -1.7 1.8
0 -1.6 1.8 0 -1.5 1.8 0 -1.4 1.8 0
-1.3 1.8 0 -1.2 1.8 0 -1.1 1.8 0 -1
1.8 0 -0.9 1.8 0 -0.8 1.8 0 -0.7 1.8
0 -0.6 1.8 0 -0.5 1.8 0 -0.4 1.8 0
-0.3 1.8 0 -0.2 1.8 0 -0.1 1.8 0 0
1.8 0 0.1 1.8 0 0.2 1.8 0 0.3 1.8
0 0.4 1.8 0 0.5 1.8 0 0.6 1.8 0
0.7 1.8 0 0.8 1.8 0 0.9 1.8 0 1
1.8 0 1.1 1.8 0 1.2 1.8 0 1.3 1.8
0 1.4 1.8 0 1.5 1.8 0 1.6 1.8 0
1.7 1.8 0 1.8 1.8 0 1.9 1.8 0 2
1.8 0 2.1 1.8 0 2.2 1.8 0 2.3 1.8
0 2.4 1.8 0 2.5 1.8 0 -2.5 1.9 0
-2.4 1.9 0 -2.3 1.9 0 -2.2 1.9 0 -2.1
1.9 0 -2 1.9 0 -1.9 1.9 0 -1.8 1.9
0 -1.7 1.9 0 -1.6 1.9 0 -1.5 1.9 0
[...]
CELL_DATA 1250
FIELD attributes 1
Ut 3 1250 float
5.52294 0.237481 0.305596 8.35152 0.814206 0.605227 4.07168 0.323795 0.167674 8.48417 1.71558
0.201743 10.7384 0.417717 0.674079 3.37441 0.339083 -0.171785 10.2233 0.993934 0.0687906
6.79636 1.75295 -0.459137 10.6853 1.28242 -0.731709 2.9918 0.559735 -0.25993 10.0195
0.39858 0.813174 10.184 0.991492 -0.0130579 7.99377 1.37104 -0.731429 9.98774 1.2043
-0.991734 10.9322 0.992029 -0.478277 12.0059 0.222934 1.16008 2.91108 0.540475 -0.228983
10.5032 0.429797 -0.0918907 8.46978 0.657249 -0.594737 11.726 0.549248 -1.16805 10.8596
0.357689 0.304687 10.5921 0.737262 -0.653315 11.9043 0.844593 1.37514 10.4876 0.329043
-1.17603 5.17196 0.337376 -0.480032 10.7287 0.272255 -0.494885 12.3069 1.69301 0.023667
9.35762 0.174922 -0.779781 11.8994 1.39901 0.701461 9.95181 0.295026 -0.700999 11.8705
0.229932 -0.720358 12.6788 0.830205 -0.826633 10.5987 0.245447 -0.913564 12.7756 0.271147
1.22305 6.04707 0.0388217 -0.285583 13.8942 0.566383 0.183292 8.933 0.0747328 -0.974648
12.7799 0.400326 0.711424 10.0661 -0.0467944 -1.3918 11.176 0.103401 -0.87595 13.3481
0.597467 -1.22849 14.0322 0.137015 -0.334204 9.85806 0.0985183 -1.17782 14.3385 0.30449
1.07697 5.13256 -0.431844 0.294412 11.8315 0.80164 0.272138 8.39213 0.108512 0.364755
13.3351 0.583357 -0.440928 12.5619 -0.165229 -0.711877 12.739 -0.0541438 -1.11129 13.1566
1.09542 0.607266 10.3439 -0.197197 -0.0941795 13.9885 0.936507 -0.149915 10.8838 0.0121499
-0.48652 12.9378 -0.0203796 -0.108671 11.9776 0.270471 -0.324537 14.4893 -0.309479 1.11306
5.25937 -0.890822 0.144573 13.904 0.451844 -0.434328 11.4849 -0.24229 0.320009 9.69924
-0.0359425 0.392204 11.6177 -0.506049 -0.57987 13.1655 0.826371 0.23474 10.9831 -0.175399
0.289601 13.2361 0.336488 -0.394819 15.0864 1.58948 -0.25003 12.0833 0.413709 0.038502
11.6844 -0.216692 -0.0914945 14.3756 0.172568 -0.297873 14.3742 1.35776 -0.0722885 11.1963
-0.378291 0.155537 15.6327 -0.461905 1.10402 4.69242 -1.28605 0.247431 8.17486 -0.0700962
0.281822 14.5031 -0.622802 0.324394 15.7247 -0.544852 -0.0215689 11.2436 -0.0300001 -0.124631
12.9192 0.202482 0.975669 13.7023 0.378495 -0.368275 13.4982 -0.444634 0.277895 14.7393
0.499555 -0.514134 15.6555 -0.774299 -0.0485117 11.7277 0.703213 -0.112698 15.836 -0.348782
0.0179627 12.4514 -0.231285 0.205825 14.0122 0.369272 1.86074 13.7859 -0.266068 0.298724
16.0144 -0.24364 0.854453 5.12022 -1.40368 0.814586 13.3733 -0.249475 0.2484 15.3062
-0.45164 0.333913 9.74638 0.0503611 1.2429 16.6205 -0.29287 0.0209143 10.31 0.0912159
0.70344 15.0972 0.36997 -0.244293 12.6571 -0.197925 0.109482 16.2896 -0.154472 0.159581
12.0182 0.447454 0.255271 13.9364 -0.416412 1.75439 13.8963 -0.0991594 0.866488 13.5344
-0.257265 -0.462866 17.2599 -0.300728 0.267089 15.1286 0.473804 0.768579 13.6345 -0.107345
0.0367449 4.41862 -1.26465 0.650938 17.4499 -0.634725 0.677343 8.75326 -0.503461 1.4714
16.3804 -1.30248 0.31868 14.7491 -1.14937 0.202936 12.1007 -0.169276 1.07644 15.0031
-0.209496 -0.113107 13.6945 0.672789 -0.782278 15.438 -0.436216 1.7124 15.0479 -0.685802
0.102479 14.1585 0.237226 0.247937 12.8069 -0.0362088 0.0614299 14.5662 0.203488 0.946437
15.6636 0.537667 -0.471209 14.5129 0.235689 1.06332 16.912 -0.416277 0.0993965 12.3812
0.0110372 -0.280401 16.5683 -0.668715 0.744746 3.5566 -0.910785 0.257796 8.41912 -0.955718
0.548691 14.8404 0.105652 1.79362 15.2728 -1.2724 0.350982 15.6606 -0.0447326 0.158954
15.0462 1.84497 -0.175219 15.1084 -0.155129 -0.373171 15.0453 -1.2106 0.519748 10.4541
-0.460566 0.651876 15.5831 0.414401 0.425267 15.2858 0.946282 -0.200084 16.6605 -1.27732
-0.0652386 12.6867 -0.508538 0.717085 15.7733 1.13917 -0.416003 14.063 0.380559 0.773235
15.5861 -0.832968 -0.242141 13.009 0.119024 0.77573 15.6192 -0.123913 0.409 15.4106
0.255333 1.10173 14.5752 0.809108 0.0795078 16.9058 -0.857723 0.81568 15.9201 -0.0622059
-0.461034 4.20068 -0.210945 0.771622 15.1047 2.20623 0.560228 14.6379 -1.73337 0.495853
14.906 0.745933 0.386106 15.8228 1.13281 -0.350595 10.2207 -0.416731 1.59306 13.5887
-1.6377 0.705952 11.9195 -0.264745 1.49209 16.14 -1.12953 0.0139542 13.0647 -0.425022
1.1315 15.517 0.549921 -0.0867681 15.4512 1.12895 -0.039508 15.8994 -0.0115048 0.231733
16.6885 -0.0182285 0.949832 16.8129 -0.340379 0.125031 14.9753 1.44613 0.282835 14.2844
-0.341461 0.993256 16.7551 0.844375 0.398502 16.6407 1.1434 -0.17234 15.5377 1.24366
0.212591 16.2747 0.242686 -0.729827 15.2736 1.10637 0.828073 16.0117 -0.586438 0.582495
5.45993 -0.146886 1.15419 14.9686 -1.37243 0.853539 11.6554 -0.013883 2.24803 14.5668
-1.46961 0.868109 12.3503 -0.109974 1.95923 16.5228 0.586226 -0.0561622 16.5212 0.611369
0.345537 15.1891 0.77184 0.44559 15.0078 -0.955204 0.349646 13.2761 0.0479811 1.48085
15.7281 0.828084 0.308699 16.137 0.707119 -0.379299 15.9423 1.51002 0.279525 16.0076
1.62281 -0.196859 14.8177 -0.782275 0.944459 16.6285 -0.380172 0.483774 15.7975 1.13788
-0.200972 15.2903 1.18728 -0.175393 16.0356 -0.0740806 -1.04732 16.2463 0.72102 -0.458931
14.4007 -0.23567 0.301234 16.8902 1.2471 -0.352412 15.1052 1.62585 -0.317022 16.3864
-0.255006 0.351505 7.18513 -0.389821 0.541022 17.0655 0.971718 -0.803837 15.8761 -0.515461
1.27718 10.0744 -0.378352 0.96217 15.0526 -0.551817 0.801991 11.2404 -0.496087 0.805865
16.0712 0.652843 0.134471 15.2535 0.186236 -0.492411 15.6748 1.30399 -0.450513 15.0483
1.24989 0.101718 14.7453 -0.302777 0.323055 12.0578 -0.106663 0.539366 16.7406 0.126186
0.282416 14.4983 -0.868713 0.410111 16.067 0.955186 -0.998992 17.5393 0.883687 -1.2353
16.1115 1.73692 -0.767039 16.4852 1.00821 0.503812 15.2976 0.0764683 -0.785085 14.9903
-0.789382 0.698778 15.654 1.07194 -0.472625 15.347 1.0615 -0.347014 16.1506 0.30366
-0.60259 15.4816 0.13101 0.284191 6.76397 -0.418248 0.579142 16.6949 -0.00814127 1.06119
9.56296 -0.649112 1.2372 15.9463 -0.180347 0.260909 10.7498 -0.649359 1.29975 16.2035
-0.346913 -0.837226 15.9236 0.73351 0.263757 15.4528 0.383585 0.836114 16.4218 0.426171
-0.784942 14.3029 0.116539 0.335361 15.6943 1.48014 -1.06763 12.5335 -0.732248 1.39822
15.5482 1.43465 -1.29507 15.2053 1.11792 -1.16099 16.3975 0.976115 -0.378797 16.2638
0.301496 0.0268263 15.0062 -0.853575 1.39416 15.8157 0.183879 -1.08508 15.2546 0.459761
0.532762 16.5234 1.23903 -0.972843 15.3014 -0.592327 -0.461404 15.5648 0.474549 0.00753254
13.6715 -0.998724 0.800583 15.9193 1.40509 -1.56398 16.0748 -0.317517 0.31124 16.3801
0.260743 -0.0105466 5.53321 -0.537809 0.300211 17.5055 -0.318034 -1.55267 9.15129 -0.195963
0.519396 16.2521 1.48795 -0.462118 15.8926 1.48234 -0.924678 16.2703 -0.809186 0.0409674
16.6084 0.777957 -0.718624 15.7152 0.0337343 -0.183077 15.5528 -0.885174 -0.367925 10.4693
-0.185437 0.454161 14.5487 -0.334481 -1.41967 16.212 1.5677 -1.82522 12.7287 -1.18414
0.826011 14.5921 -0.502742 0.558672 16.0275 0.194299 -0.880456 16.4422 0.639642 -0.678023
14.1677 -1.13517 0.993955 16.2978 -0.0989414 0.0659488 15.6083 -0.460903 -0.82583 15.7379
1.38178 -0.498287 15.1643 1.31116 -0.933301 15.4216 1.57221 -1.97299 14.9282 0.151107
0.200821 13.3364 -1.18324 0.56323 15.6726 1.23802 -1.78694 14.771 0.193452 -0.943163
17.3153 0.166218 -1.56822 15.5502 0.0112594 -0.879654 17.9391 -0.958538 0.491391 4.715
-0.470705 -0.360695 14.8766 -1.29319 -0.810205 15.2795 0.554824 -0.441649 9.99433 0.639073
-0.610016 14.3895 -0.376608 0.141092 15.7247 1.6303 -0.775425 14.6594 -0.443723 -1.12243
15.8708 -0.430938 -0.835095 11.155 0.120948 -0.371386 15.462 -0.498007 0.402515 12.8815
-1.13583 -0.231042 16.8631 0.988681 -0.577434 15.782 -0.203735 -1.00795 16.5994 0.765043
-0.622006 16.7305 0.215906 -0.474441 15.1916 1.14209 -1.63921 15.9046 -0.655988 0.0841898
14.7456 0.611907 -2.42648 14.7959 0.623619 -1.86596 12.527 -1.33732 -0.157784 15.7782
1.12773 -0.902117 14.6488 -0.254788 -0.690971 15.0066 -0.390403 0.383838 14.2491 -1.21978
-0.0482507 14.8166 -0.176298 -1.19849 15.5796 0.477948 -1.2845 15.9308 1.50866 -0.553833
14.5343 -0.28925 -0.906524 15.209 -0.345231 0.211071 13.5672 -0.2701 0.0768536 17.867
-0.369431 0.705504 4.57891 -0.156207 -0.257204 15.5382 -0.573373 -0.741053 8.74524 1.18736
-0.604444 15.1039 -0.418672 -0.579024 11.4214 0.37485 -0.718196 15.0775 0.488466 -1.895
14.8803 0.908352 -2.03838 14.6191 0.298334 -2.70468 14.7914 -0.169018 -0.894868 16.0623
-0.370032 0.221832 15.6496 0.366695 -0.719396 16.7398 0.208559 -1.25806 11.2872 -0.874793
-0.473158 14.5642 -0.245748 -1.30443 15.4704 0.141843 0.245342 14.0206 -0.283913 -0.042931
14.4324 -0.310966 -0.321418 11.8645 -0.964309 -0.0996783 14.4871 1.12273 -0.658604 15.1046
-0.185012 0.853077 14.0565 -0.822964 0.318254 13.8177 0.202989 -0.845517 15.5215 -0.245313
0.353304 15.6525 0.454906 -1.09965 16.1599 1.51062 -0.984231 14.5177 0.810075 -1.54709
14.3886 0.977665 -1.96417 15.6191 0.160381 -0.860524 14.1786 0.316373 0.786523 14.7242
-0.330298 0.457136 16.7716 -0.573425 0.922903 5.31337 0.11676 -0.183303 15.9587 -0.123727
-1.17268 13.7615 -0.395034 -1.88714 16.833 -1.2349 -0.2167 9.93965 1.03482 -0.312368
15.0443 -1.58065 0.00683108 13.4765 0.448645 -0.21025 14.8476 0.326191 -0.436581 15.7119
-0.0111638 0.273952 10.7088 -0.845297 -0.218237 15.6911 -1.3508 0.741335 14.0942 -0.698118
-1.42778 15.0884 0.297992 0.675695 16.3534 1.08248 -0.883859 15.8679 0.141453 -0.288764
14.8577 -0.643882 0.478355 12.1697 -0.521465 -0.00904622 15.0455 1.5152 -0.789902 15.7991
0.749366 -0.689794 16.4242 1.31807 -0.039369 15.4546 -0.186582 -0.76724 13.4622 -0.0924794
-1.49697 13.2994 -0.0465622 0.329717 16.5612 -0.280794 -0.0777818 15.6985 0.101663 -1.75957
14.566 -0.664103 -0.486414 14.0809 -0.487971 1.26258 14.969 0.205526 -0.891358 15.7846
-0.493307 -0.67245 14.2988 0.736993 0.379664 13.6977 -0.626602 0.192321 5.20341 0.254477
-0.0832359 15.704 -0.0314235 0.73313 9.32484 0.529512 0.0568396 16.3972 0.00487735 -1.15109
15.1219 -0.420998 -0.352987 16.1798 -0.0310086 0.229888 16.1614 -0.820426 -0.302572 12.7837
-0.144241 0.493848 16.2375 -0.301346 -0.141216 16.3524 0.771825 -0.628296 14.9769 0.421669
0.14753 14.005 -0.730128 -0.521356 12.5638 -0.807675 0.511513 15.8264 -0.906121 1.25135
15.3026 1.46812 -0.667633 14.2966 0.68255 -0.451444 15.3049 0.883185 -1.47604 13.7809
-0.198023 0.347455 15.1237 -1.26113 1.01781 16.5489 0.0579502 -1.24682 14.8398 -0.739928
-0.897219 14.2559 -0.179882 -0.153514 17.3284 1.02518 -1.97079 16.283 -0.585011 -0.330995
14.3524 -0.654689 -0.180325 13.9169 0.483692 0.430765 15.8984 -1.29299 1.1903 16.491
0.139635 -1.08299 16.0782 -1.33987 0.0129091 14.7476 0.662123 0.304887 14.5054 -1.70855
0.616968 17.9506 -0.112873 -0.717561 14.3501 -0.652353 -0.0973376 14.3101 0.878433 -0.984337
14.723 1.11275 -0.661391 15.8056 -0.0822387 0.00919853 17.0586 0.623514 -1.99088 4.08389
0.411086 -0.332972 15.7197 -0.745049 0.189996 8.60556 -0.0171825 -0.340859 15.2317 0.811845
-1.60691 15.4895 -0.357102 -0.668034 16.1355 -1.6094 0.0939948 16.9107 -1.6657 0.180217
12.8558 -0.632558 0.00039797 14.7009 0.162062 0.205834 15.7019 -2.2368 0.255818 14.6314
-1.43122 -0.339283 13.1792 -0.89609 -0.102299 16.8305 0.262358 -0.89175 15.7975 -1.46949
1.14859 14.4837 -0.0212434 -0.0437617 16.8826 0.695664 -0.682496 15.0983 -0.567787 -0.243754
15.9285 -1.09608 0.629163 15.0228 -0.279113 0.416606 16.1744 -0.554718 0.218947 15.8843
0.44552 -1.58975 15.3226 -2.13104 0.364242 14.0409 0.292017 0.381559 15.4938 -0.958241
0.62694 14.9935 0.956037 -0.690284 14.9134 0.484375 -1.44696 15.057 0.232682 -0.00633868
15.2231 -1.17843 -0.529218 14.936 -1.44961 1.0591 13.7948 0.0804417 0.714869 15.9581
0.422726 -0.581356 17.2096 0.616788 -0.82003 15.8932 -0.440731 0.321858 16.7602 0.157354
-0.140823 14.8454 -1.62587 0.00982205 16.3537 -0.173999 -0.144031 3.66175 0.324479 -0.0840771
14.4938 -0.410512 -0.333052 14.53 -0.625712 0.197579 6.97976 -0.513643 -0.0419796 15.7879
0.471491 -1.7942 15.06 -0.833329 1.25251 12.4767 -0.684586 0.330387 14.6717 -0.0280763
0.442481 15.3404 -2.15885 0.626498 17.026 -0.933534 0.989791 12.6016 -0.860057 0.65527
18.3982 0.482786 -0.561369 15.8898 -1.05372 -0.66058 17.7382 0.535403 -1.53069 15.8742
-0.749721 0.319073 14.6857 -0.539611 0.116645 14.5691 0.0150299 0.604321 14.7967 0.723588
-1.012 15.0511 0.444948 -0.421082 16.3542 -0.227904 0.104704 14.2308 -2.24487 0.849918
15.9983 0.30834 -0.943462 15.6085 -1.38934 0.871541 15.5801 -0.94845 0.211901 13.6666
0.225355 0.374876 15.5904 -0.238482 -2.1582 15.1312 -1.12193 -0.0162056 17.4383 0.457543
-0.789488 14.8907 -0.798686 -0.12685 15.4538 -1.80366 1.25027 14.7035 -0.200465 -0.147834
15.7348 0.461746 0.101577 14.2979 -1.58435 -0.313112 16.1355 -0.0859165 -1.85364 16.1359
-1.29329 0.121878 15.51 -0.155899 -0.121138 4.95219 -0.116994 -0.0660701 9.23084 -0.836265
0.236438 14.7003 -0.540894 -0.217244 15.4424 0.292507 -0.821649 14.4143 -2.28931 0.860569
16.387 -0.095207 -0.881116 10.7274 -0.200336 0.804155 14.7327 0.466016 -1.49136 15.2978
-1.69734 -0.367291 17.2354 -1.00405 0.855977 17.0893 0.470786 -0.018942 14.8027 -0.897216
-0.592795 16.7088 -0.386879 -0.826243 13.002 -0.62437 1.09439 14.9513 -0.850426 -0.0604563
15.9005 -1.42496 0.476727 15.3269 0.0997922 -1.76341 14.4158 -1.54279 1.63843 13.735
-0.0762288 0.802668 14.04 -1.6423 -0.011181 14.9832 -2.22506 0.772984 14.2922 -0.302529
-0.934545 16.5311 -0.573285 -1.7461 14.4574 -1.55204 0.56972 14.95 0.616939 -0.134064
15.2647 -1.73681 0.094427 15.3451 -0.637181 -0.679756 16.58 0.115631 -0.164124 16.5456
0.392377 -0.214969 17.1571 -0.600788 -0.87525 14.6343 -2.06021 -0.711327 15.062 -1.01331
-0.311298 14.8442 -0.0285176 -0.86301 14.5822 -2.34793 0.722679 14.3328 0.159352 -1.52346
14.9418 -1.20471 -0.925841 15.0611 0.175934 -1.2588 13.5471 -1.69345 -0.472591 5.0024
-0.567548 0.332376 16.3413 0.00233598 -1.88354 13.6496 -1.70252 2.07975 15.3151 -0.154031
-0.860249 14.7486 -3.283 0.434681 8.79196 -1.19212 0.74774 17.2224 -1.17818 -0.144248
13.4043 -0.824599 0.126496 14.722 -1.75351 -0.171102 10.9445 0.082465 0.706994 17.3884
0.638674 0.379357 12.9995 -0.665564 0.291742 17.2601 -0.614482 -1.24385 14.3107 -1.24471
1.09867 15.925 -0.127819 -0.811808 13.6413 -3.00987 0.281846 13.1203 -0.40948 -0.312825
14.7095 -0.570475 -1.34366 14.606 0.885973 -0.702642 13.8564 -1.50656 -1.00619 13.8962
-1.01212 -0.408174 16.9849 -0.607112 0.496177 14.2125 -0.148739 -1.02582 15.9523 -0.318294
0.167631 15.1161 -1.12037 -0.341496 15.0311 -0.0209229 -1.76537 14.0192 -1.97289 -0.439519
16.5917 0.162572 -0.761481 14.8376 -1.91226 -0.406352 15.181 -0.199845 -0.589037 16.6776
-0.14778 -1.56436 13.9261 -1.37022 1.85051 12.4553 -0.578311 0.212082 17.0194 -1.25454
0.313429 14.5965 0.0986513 -0.306967 4.6819 -0.856084 -0.172354 17.2799 0.95021 -0.0898105
15.1157 -1.39341 0.010059 9.40418 -1.60289 -0.533706 10.6467 -0.59372 -0.693422 17.1024
-0.48565 0.243871 13.5303 -1.12832 1.38975 12.4777 -0.592422 -0.779229 13.9577 -0.533322
-0.790742 16.3324 -1.21202 -1.49032 16.1119 0.309487 -0.207338 15.1293 -0.571643 -1.05699
13.795 -1.92756 -1.11428 13.6529 -0.695966 -0.857698 16.2507 0.062929 -1.56914 15.9486
-1.10236 0.579862 13.4245 -1.49578 -0.539559 13.3439 -1.12529 -0.0453866 13.7444 -0.823767
0.145416 16.8187 -0.282441 0.101367 14.2431 0.907358 -0.841804 17.456 0.0869605 -0.450226
16.1467 -0.666441 0.202642 12.8972 -0.568445 1.34292 15.1599 -0.394819 -0.718718 16.1849
-1.15327 0.779585 13.0264 -1.06308 -0.0217444 16.9403 -1.49049 -0.694966 15.0069 -1.02184
-0.497881 13.8272 -1.78474 -1.73074 17.3062 0.648913 -0.890316 13.4932 -0.944169 1.12187
16.387 0.342179 -0.396287 16.6783 -0.04028 0.148546 4.61658 -0.951278 -0.288862 8.55335
-1.92805 -1.0032 14.749 -0.917638 -1.08774 13.8824 -1.73788 -1.34864 11.2941 -1.19253
-1.51541 11.4995 -0.374762 -1.60768 16.8374 0.338172 -0.253406 15.7732 -0.0215816 0.46173
12.4245 -0.258487 -0.820347 12.196 -0.809792 -1.49879 16.3364 -0.349564 1.02235 14.2834
-1.15296 0.264783 16.7231 -0.846953 -0.836165 14.2124 -0.244305 0.984745 13.3568 0.510667
-1.32603 16.0845 -0.831195 0.3354 17.3627 0.0607384 -0.514592 14.9672 -1.78859 -0.239111
15.7556 -1.45046 -0.940479 14.9184 -0.255892 -1.01849 14.1853 -1.63674 -0.338814 14.7196
-2.04479 -1.47944 15.6496 -0.859767 -0.238363 16.195 0.283064 1.25004 13.0148 -0.756435
0.428877 16.0544 -0.716642 0.298133 13.0696 -0.553668 -1.47465 16.0683 0.119125 -0.949448
15.4771 0.129538 -0.496132 5.26369 -1.24595 0.0210358 12.9862 0.163849 -0.766328 9.37957
-2.25232 -0.00363235 15.6744 -0.287908 0.515861 10.6902 -1.16669 -0.0189941 12.0925 -0.334806
0.0546305 16.0026 0.252682 -0.348267 14.6528 0.117116 0.628798 15.6885 -0.586371 -1.30644
15.4783 -1.37036 -0.252045 13.4826 -0.805307 0.163902 16.0541 -0.247703 1.10038 14.1555
-0.149496 0.416555 12.6393 -1.48516 0.075018 14.7323 -1.89566 -1.06107 14.9994 -1.41213
-0.251496 15.7609 -0.730651 -1.11268 14.2203 0.0478235 0.280195 17.0624 0.133955 -0.458803
15.0477 -0.314746 0.498878 14.3415 0.110407 -1.1921 15.0507 -0.363766 0.18488 15.9552
-0.695047 -1.86406 17.3962 0.039234 1.32259 16.0501 0.430757 -0.516782 15.63 -0.306782
0.84127 13.8836 0.0684524 -0.314275 15.8779 -0.53443 0.015554 14.2064 -1.81674 -0.305075
15.1705 -1.53324 -0.667897 6.75061 -1.77162 0.352885 9.85655 -2.4102 0.750803 14.3578
-1.21497 -0.376481 11.6915 -0.899121 0.926229 16.0975 0.0750584 -1.92237 15.2044 -0.866311
-0.741961 15.7868 0.396508 0.0630343 12.7066 -0.275916 0.997417 16.1586 -0.496398 -0.879734
16.2269 0.355245 1.19063 14.9126 -0.722691 0.521361 14.2402 0.292231 -0.864283 13.1612
-0.930185 0.856324 15.1246 0.328383 0.012378 15.6048 -0.269939 0.69518 13.6506 0.196201
-0.451751 15.1231 -0.17053 0.910408 15.0877 -0.384289 -1.14957 16.2694 -0.92371 -1.45789
14.4585 -0.47807 1.03946 16.8384 -0.404243 0.831652 15.7628 -1.63012 -1.28778 15.6227
0.74197 -0.323434 14.0206 -1.78245 0.127142 15.8575 -0.66788 -0.987323 14.1543 -1.08934
0.85809 14.4888 0.3083 -0.248441 14.5786 -1.23885 1.02399 16.6559 -0.431956 -1.68751
6.56487 -1.40141 0.041816 15.0363 -0.47002 0.765675 14.0542 0.363546 -0.349164 9.24659
-1.89955 0.404514 16.026 0.552615 -0.526784 10.8225 -0.821872 1.0281 15.0706 0.348602
0.84626 15.6524 -0.251479 -0.518927 12.7042 -0.425808 1.5553 15.7972 -0.370365 0.912749
12.732 -0.997667 1.78377 15.016 0.0454195 0.326076 14.2683 -0.486507 1.90267 16.9491
-0.397915 -1.03574 16.5387 -1.70435 0.0788857 14.4068 -0.37641 -1.65905 15.3598 -0.701846
-0.291358 15.043 -1.35973 1.11006 14.7031 0.287821 -1.16192 15.7224 -0.539885 -0.00459445
14.0969 -0.374997 1.95312 15.6797 -1.07921 1.01568 14.5295 0.105511 0.00350991 15.6891
0.428916 -0.0888767 16.5408 -0.65769 1.43395 14.2625 -1.4742 1.62705 15.6252 0.022365
0.00659682 16.9257 0.420327 0.0608073 4.27449 -0.402603 0.407073 8.88812 -1.15336 0.757964
15.0642 0.0527889 -0.165013 14.6324 -0.0341332 1.44653 10.6991 -0.901009 0.622524 17.0004
-0.581026 0.503865 15.5103 -0.900794 -0.562555 12.7737 -0.69057 0.737886 15.3855 -1.48247
1.07841 15.7744 0.46619 -1.02582 14.4625 0.0206116 -0.638201 14.8081 -1.01402 0.995956
13.165 -0.899076 1.16483 17.1098 -0.0293469 -0.0510166 15.7284 -0.367605 1.49058 14.0462
0.0236351 -0.387083 16.8137 -0.290541 0.567318 16.4746 -1.40357 1.66784 13.9663 -0.869282
1.34023 13.1825 -0.489416 1.50508 15.2052 0.320324 1.34606 16.0535 -0.847288 0.928415
16.9052 0.151412 -0.0976205 13.5618 -1.6176 1.82336 14.6725 0.719891 -0.469255 14.6523
0.254325 -0.409787 14.4359 -1.49068 0.860359 12.485 0.377292 -0.269656 15.2552 -1.03531
1.22763 16.4809 -0.874653 0.168738 14.5661 0.614467 1.25412 4.83887 -0.372333 0.175943
16.0225 -1.0158 1.47875 7.4806 -0.791034 0.481003 13.7905 -0.321773 1.7202 9.26095
-0.683738 0.85107 11.2654 -0.477906 0.965131 15.4816 0.385054 -0.562977 15.7388 -1.79248
1.2289 13.383 -0.968275 1.0124 16.6631 0.0594093 0.116032 14.4716 -0.326473 1.19043
14.7529 0.378745 1.23949 13.7558 -0.653162 1.11911 16.048 -0.723902 -0.318224 14.2105
-0.195449 0.678291 14.9508 0.597695 -0.0193793 13.4305 -0.816601 1.06625 15.7469 -1.04591
1.93065 15.322 0.434029 0.50942 14.4975 -0.57276 1.89079 14.738 0.0335881 -1.05111
14.8947 0.482041 1.27275 16.2889 -1.11834 0.0582277 14.032 -1.65897 1.31535 14.8277