# vtk DataFile Version 2.0
sampleSurface
ASCII
DATASET POLYDATA
POINTS 1326 float
0 -2.5 0 0 -2.5 0.1 0 -2.4 0.1 0 -2.4
0 0 -2.3 0.1 0 -2.3 0 0 -2.2 0.1
0 -2.2 0 0 -2.1 0.1 0 -2.1 0 0
-2 0.1 0 -2 0 0 -1.9 0.1 0 -1.9
0 0 -1.8 0.1 0 -1.8 0 0 -1.7 0.1
0 -1.7 0 0 -1.6 0.1 0 -1.6 0 0
-1.5 0.1 0 -1.5 0 0 -1.4 0.1 0 -1.4
0 0 -1.3 0.1 0 -1.3 0 0 -1.2 0.1
0 -1.2 0 0 -1.1 0.1 0 -1.1 0 0
-1 0.1 0 -1 0 0 -0.9 0.1 0 -0.9
0 0 -0.8 0.1 0 -0.8 0 0 -0.7 0.1
0 -0.7 0 0 -0.6 0.1 0 -0.6 0 0
-0.5 0.1 0 -0.5 0 0 -0.4 0.1 0 -0.4
0 0 -0.3 0.1 0 -0.3 0 0 -0.2 0.1
0 -0.2 0 0 -0.1 0.1 0 -0.1 0 0
0 0.1 0 0 0 0 0.1 0.1 0 0.1
0 0 0.2 0.1 0 0.2 0 0 0.3 0.1
0 0.3 0 0 0.4 0.1 0 0.4 0 0
0.5 0.1 0 0.5 0 0 0.6 0.1 0 0.6
0 0 0.7 0.1 0 0.7 0 0 0.8 0.1
0 0.8 0 0 0.9 0.1 0 0.9 0 0
1 0.1 0 1 0 0 1.1 0.1 0 1.1
0 0 1.2 0.1 0 1.2 0 0 1.3 0.1
0 1.3 0 0 1.4 0.1 0 1.4 0 0
1.5 0.1 0 1.5 0 0 1.6 0.1 0 1.6
0 0 1.7 0.1 0 1.7 0 0 1.8 0.1
0 1.8 0 0 1.9 0.1 0 1.9 0 0
2 0.1 0 2 0 0 2.1 0.1 0 2.1
0 0 2.2 0.1 0 2.2 0 0 2.3 0.1
0 2.3 0 0 2.4 0.1 0 2.4 0 0
2.5 0.1 0 2.5 0 0 -2.5 0.2 0 -2.4
0.2 0 -2.3 0.2 0 -2.2 0.2 0 -2.1 0.2
0 -2 0.2 0 -1.9 0.2 0 -1.8 0.2 0
-1.7 0.2 0 -1.6 0.2 0 -1.5 0.2 0 -1.4
0.2 0 -1.3 0.2 0 -1.2 0.2 0 -1.1 0.2
0 -1 0.2 0 -0.9 0.2 0 -0.8 0.2 0
-0.7 0.2 0 -0.6 0.2 0 -0.5 0.2 0 -0.4
0.2 0 -0.3 0.2 0 -0.2 0.2 0 -0.1 0.2
0 0 0.2 0 0.1 0.2 0 0.2 0.2 0
0.3 0.2 0 0.4 0.2 0 0.5 0.2 0 0.6
0.2 0 0.7 0.2 0 0.8 0.2 0 0.9 0.2
0 1 0.2 0 1.1 0.2 0 1.2 0.2 0
1.3 0.2 0 1.4 0.2 0 1.5 0.2 0 1.6
0.2 0 1.7 0.2 0 1.8 0.2 0 1.9 0.2
0 2 0.2 0 2.1 0.2 0 2.2 0.2 0
2.3 0.2 0 2.4 0.2 0 2.5 0.2 0 -2.5
0.3 0 -2.4 0.3 0 -2.3 0.3 0 -2.2 0.3
0 -2.1 0.3 0 -2 0.3 0 -1.9 0.3 0
-1.8 0.3 0 -1.7 0.3 0 -1.6 0.3 0 -1.5
0.3 0 -1.4 0.3 0 -1.3 0.3 0 -1.2 0.3
0 -1.1 0.3 0 -1 0.3 0 -0.9 0.3 0
-0.8 0.3 0 -0.7 0.3 0 -0.6 0.3 0 -0.5
0.3 0 -0.4 0.3 0 -0.3 0.3 0 -0.2 0.3
0 -0.1 0.3 0 0 0.3 0 0.1 0.3 0
0.2 0.3 0 0.3 0.3 0 0.4 0.3 0 0.5
0.3 0 0.6 0.3 0 0.7 0.3 0 0.8 0.3
0 0.9 0.3 0 1 0.3 0 1.1 0.3 0
1.2 0.3 0 1.3 0.3 0 1.4 0.3 0 1.5
0.3 0 1.6 0.3 0 1.7 0.3 0 1.8 0.3
0 1.9 0.3 0 2 0.3 0 2.1 0.3 0
2.2 0.3 0 2.3 0.3 0 2.4 0.3 0 2.5
0.3 0 -2.5 0.4 0 -2.4 0.4 0 -2.3 0.4
0 -2.2 0.4 0 -2.1 0.4 0 -2 0.4 0
-1.9 0.4 0 -1.8 0.4 0 -1.7 0.4 0 -1.6
0.4 0 -1.5 0.4 0 -1.4 0.4 0 -1.3 0.4
0 -1.2 0.4 0 -1.1 0.4 0 -1 0.4 0
-0.9 0.4 0 -0.8 0.4 0 -0.7 0.4 0 -0.6
0.4 0 -0.5 0.4 0 -0.4 0.4 0 -0.3 0.4
0 -0.2 0.4 0 -0.1 0.4 0 0 0.4 0
0.1 0.4 0 0.2 0.4 0 0.3 0.4 0 0.4
0.4 0 0.5 0.4 0 0.6 0.4 0 0.7 0.4
0 0.8 0.4 0 0.9 0.4 0 1 0.4 0
1.1 0.4 0 1.2 0.4 0 1.3 0.4 0 1.4
0.4 0 1.5 0.4 0 1.6 0.4 0 1.7 0.4
0 1.8 0.4 0 1.9 0.4 0 2 0.4 0
2.1 0.4 0 2.2 0.4 0 2.3 0.4 0 2.4
0.4 0 2.5 0.4 0 -2.5 0.5 0 -2.4 0.5
0 -2.3 0.5 0 -2.2 0.5 0 -2.1 0.5 0
-2 0.5 0 -1.9 0.5 0 -1.8 0.5 0 -1.7
0.5 0 -1.6 0.5 0 -1.5 0.5 0 -1.4 0.5
0 -1.3 0.5 0 -1.2 0.5 0 -1.1 0.5 0
-1 0.5 0 -0.9 0.5 0 -0.8 0.5 0 -0.7
0.5 0 -0.6 0.5 0 -0.5 0.5 0 -0.4 0.5
0 -0.3 0.5 0 -0.2 0.5 0 -0.1 0.5 0
0 0.5 0 0.1 0.5 0 0.2 0.5 0 0.3
0.5 0 0.4 0.5 0 0.5 0.5 0 0.6 0.5
0 0.7 0.5 0 0.8 0.5 0 0.9 0.5 0
1 0.5 0 1.1 0.5 0 1.2 0.5 0 1.3
0.5 0 1.4 0.5 0 1.5 0.5 0 1.6 0.5
0 1.7 0.5 0 1.8 0.5 0 1.9 0.5 0
2 0.5 0 2.1 0.5 0 2.2 0.5 0 2.3
0.5 0 2.4 0.5 0 2.5 0.5 0 -2.5 0.6
0 -2.4 0.6 0 -2.3 0.6 0 -2.2 0.6 0
-2.1 0.6 0 -2 0.6 0 -1.9 0.6 0 -1.8
0.6 0 -1.7 0.6 0 -1.6 0.6 0 -1.5 0.6
0 -1.4 0.6 0 -1.3 0.6 0 -1.2 0.6 0
-1.1 0.6 0 -1 0.6 0 -0.9 0.6 0 -0.8
0.6 0 -0.7 0.6 0 -0.6 0.6 0 -0.5 0.6
0 -0.4 0.6 0 -0.3 0.6 0 -0.2 0.6 0
-0.1 0.6 0 0 0.6 0 0.1 0.6 0 0.2
0.6 0 0.3 0.6 0 0.4 0.6 0 0.5 0.6
0 0.6 0.6 0 0.7 0.6 0 0.8 0.6 0
0.9 0.6 0 1 0.6 0 1.1 0.6 0 1.2
0.6 0 1.3 0.6 0 1.4 0.6 0 1.5 0.6
0 1.6 0.6 0 1.7 0.6 0 1.8 0.6 0
1.9 0.6 0 2 0.6 0 2.1 0.6 0 2.2
0.6 0 2.3 0.6 0 2.4 0.6 0 2.5 0.6
0 -2.5 0.7 0 -2.4 0.7 0 -2.3 0.7 0
-2.2 0.7 0 -2.1 0.7 0 -2 0.7 0 -1.9
0.7 0 -1.8 0.7 0 -1.7 0.7 0 -1.6 0.7
0 -1.5 0.7 0 -1.4 0.7 0 -1.3 0.7 0
-1.2 0.7 0 -1.1 0.7 0 -1 0.7 0 -0.9
0.7 0 -0.8 0.7 0 -0.7 0.7 0 -0.6 0.7
0 -0.5 0.7 0 -0.4 0.7 0 -0.3 0.7 0
-0.2 0.7 0 -0.1 0.7 0 0 0.7 0 0.1
0.7 0 0.2 0.7 0 0.3 0.7 0 0.4 0.7
0 0.5 0.7 0 0.6 0.7 0 0.7 0.7 0
0.8 0.7 0 0.9 0.7 0 1 0.7 0 1.1
0.7 0 1.2 0.7 0 1.3 0.7 0 1.4 0.7
0 1.5 0.7 0 1.6 0.7 0 1.7 0.7 0
1.8 0.7 0 1.9 0.7 0 2 0.7 0 2.1
0.7 0 2.2 0.7 0 2.3 0.7 0 2.4 0.7
0 2.5 0.7 0 -2.5 0.8 0 -2.4 0.8 0
-2.3 0.8 0 -2.2 0.8 0 -2.1 0.8 0 -2
0.8 0 -1.9 0.8 0 -1.8 0.8 0 -1.7 0.8
0 -1.6 0.8 0 -1.5 0.8 0 -1.4 0.8 0
-1.3 0.8 0 -1.2 0.8 0 -1.1 0.8 0 -1
0.8 0 -0.9 0.8 0 -0.8 0.8 0 -0.7 0.8
0 -0.6 0.8 0 -0.5 0.8 0 -0.4 0.8 0
-0.3 0.8 0 -0.2 0.8 0 -0.1 0.8 0 0
0.8 0 0.1 0.8 0 0.2 0.8 0 0.3 0.8
0 0.4 0.8 0 0.5 0.8 0 0.6 0.8 0
0.7 0.8 0 0.8 0.8 0 0.9 0.8 0 1
0.8 0 1.1 0.8 0 1.2 0.8 0 1.3 0.8
0 1.4 0.8 0 1.5 0.8 0 1.6 0.8 0
1.7 0.8 0 1.8 0.8 0 1.9 0.8 0 2
0.8 0 2.1 0.8 0 2.2 0.8 0 2.3 0.8
0 2.4 0.8 0 2.5 0.8 0 -2.5 0.9 0
-2.4 0.9 0 -2.3 0.9 0 -2.2 0.9 0 -2.1
0.9 0 -2 0.9 0 -1.9 0.9 0 -1.8 0.9
0 -1.7 0.9 0 -1.6 0.9 0 -1.5 0.9 0
-1.4 0.9 0 -1.3 0.9 0 -1.2 0.9 0 -1.1
0.9 0 -1 0.9 0 -0.9 0.9 0 -0.8 0.9
0 -0.7 0.9 0 -0.6 0.9 0 -0.5 0.9 0
-0.4 0.9 0 -0.3 0.9 0 -0.2 0.9 0 -0.1
0.9 0 0 0.9 0 0.1 0.9 0 0.2 0.9
0 0.3 0.9 0 0.4 0.9 0 0.5 0.9 0
0.6 0.9 0 0.7 0.9 0 0.8 0.9 0 0.9
0.9 0 1 0.9 0 1.1 0.9 0 1.2 0.9
0 1.3 0.9 0 1.4 0.9 0 1.5 0.9 0
1.6 0.9 0 1.7 0.9 0 1.8 0.9 0 1.9
0.9 0 2 0.9 0 2.1 0.9 0 2.2 0.9
0 2.3 0.9 0 2.4 0.9 0 2.5 0.9 0
-2.5 1 0 -2.4 1 0 -2.3 1 0 -2.2
1 0 -2.1 1 0 -2 1 0 -1.9 1
0 -1.8 1 0 -1.7 1 0 -1.6 1 0
-1.5 1 0 -1.4 1 0 -1.3 1 0 -1.2
1 0 -1.1 1 0 -1 1 0 -0.9 1
0 -0.8 1 0 -0.7 1 0 -0.6 1 0
-0.5 1 0 -0.4 1 0 -0.3 1 0 -0.2
1 0 -0.1 1 0 0 1 0 0.1 1
0 0.2 1 0 0.3 1 0 0.4 1 0
0.5 1 0 0.6 1 0 0.7 1 0 0.8
1 0 0.9 1 0 1 1 0 1.1 1
0 1.2 1 0 1.3 1 0 1.4 1 0
1.5 1 0 1.6 1 0 1.7 1 0 1.8
1 0 1.9 1 0 2 1 0 2.1 1
0 2.2 1 0 2.3 1 0 2.4 1 0
2.5 1 0 -2.5 1.1 0 -2.4 1.1 0 -2.3
1.1 0 -2.2 1.1 0 -2.1 1.1 0 -2 1.1
0 -1.9 1.1 0 -1.8 1.1 0 -1.7 1.1 0
-1.6 1.1 0 -1.5 1.1 0 -1.4 1.1 0 -1.3
1.1 0 -1.2 1.1 0 -1.1 1.1 0 -1 1.1
0 -0.9 1.1 0 -0.8 1.1 0 -0.7 1.1 0
-0.6 1.1 0 -0.5 1.1 0 -0.4 1.1 0 -0.3
1.1 0 -0.2 1.1 0 -0.1 1.1 0 0 1.1
0 0.1 1.1 0 0.2 1.1 0 0.3 1.1 0
0.4 1.1 0 0.5 1.1 0 0.6 1.1 0 0.7
1.1 0 0.8 1.1 0 0.9 1.1 0 1 1.1
0 1.1 1.1 0 1.2 1.1 0 1.3 1.1 0
1.4 1.1 0 1.5 1.1 0 1.6 1.1 0 1.7
1.1 0 1.8 1.1 0 1.9 1.1 0 2 1.1
0 2.1 1.1 0 2.2 1.1 0 2.3 1.1 0
2.4 1.1 0 2.5 1.1 0 -2.5 1.2 0 -2.4
1.2 0 -2.3 1.2 0 -2.2 1.2 0 -2.1 1.2
0 -2 1.2 0 -1.9 1.2 0 -1.8 1.2 0
-1.7 1.2 0 -1.6 1.2 0 -1.5 1.2 0 -1.4
1.2 0 -1.3 1.2 0 -1.2 1.2 0 -1.1 1.2
0 -1 1.2 0 -0.9 1.2 0 -0.8 1.2 0
-0.7 1.2 0 -0.6 1.2 0 -0.5 1.2 0 -0.4
1.2 0 -0.3 1.2 0 -0.2 1.2 0 -0.1 1.2
0 0 1.2 0 0.1 1.2 0 0.2 1.2 0
0.3 1.2 0 0.4 1.2 0 0.5 1.2 0 0.6
1.2 0 0.7 1.2 0 0.8 1.2 0 0.9 1.2
0 1 1.2 0 1.1 1.2 0 1.2 1.2 0
1.3 1.2 0 1.4 1.2 0 1.5 1.2 0 1.6
1.2 0 1.7 1.2 0 1.8 1.2 0 1.9 1.2
0 2 1.2 0 2.1 1.2 0 2.2 1.2 0
2.3 1.2 0 2.4 1.2 0 2.5 1.2 0 -2.5
1.3 0 -2.4 1.3 0 -2.3 1.3 0 -2.2 1.3
0 -2.1 1.3 0 -2 1.3 0 -1.9 1.3 0
-1.8 1.3 0 -1.7 1.3 0 -1.6 1.3 0 -1.5
1.3 0 -1.4 1.3 0 -1.3 1.3 0 -1.2 1.3
0 -1.1 1.3 0 -1 1.3 0 -0.9 1.3 0
-0.8 1.3 0 -0.7 1.3 0 -0.6 1.3 0 -0.5
1.3 0 -0.4 1.3 0 -0.3 1.3 0 -0.2 1.3
0 -0.1 1.3 0 0 1.3 0 0.1 1.3 0
0.2 1.3 0 0.3 1.3 0 0.4 1.3 0 0.5
1.3 0 0.6 1.3 0 0.7 1.3 0 0.8 1.3
0 0.9 1.3 0 1 1.3 0 1.1 1.3 0
1.2 1.3 0 1.3 1.3 0 1.4 1.3 0 1.5
1.3 0 1.6 1.3 0 1.7 1.3 0 1.8 1.3
0 1.9 1.3 0 2 1.3 0 2.1 1.3 0
2.2 1.3 0 2.3 1.3 0 2.4 1.3 0 2.5
1.3 0 -2.5 1.4 0 -2.4 1.4 0 -2.3 1.4
0 -2.2 1.4 0 -2.1 1.4 0 -2 1.4 0
-1.9 1.4 0 -1.8 1.4 0 -1.7 1.4 0 -1.6
1.4 0 -1.5 1.4 0 -1.4 1.4 0 -1.3 1.4
0 -1.2 1.4 0 -1.1 1.4 0 -1 1.4 0
-0.9 1.4 0 -0.8 1.4 0 -0.7 1.4 0 -0.6
1.4 0 -0.5 1.4 0 -0.4 1.4 0 -0.3 1.4
0 -0.2 1.4 0 -0.1 1.4 0 0 1.4 0
0.1 1.4 0 0.2 1.4 0 0.3 1.4 0 0.4
1.4 0 0.5 1.4 0 0.6 1.4 0 0.7 1.4
0 0.8 1.4 0 0.9 1.4 0 1 1.4 0
1.1 1.4 0 1.2 1.4 0 1.3 1.4 0 1.4
1.4 0 1.5 1.4 0 1.6 1.4 0 1.7 1.4
0 1.8 1.4 0 1.9 1.4 0 2 1.4 0
2.1 1.4 0 2.2 1.4 0 2.3 1.4 0 2.4
1.4 0 2.5 1.4 0 -2.5 1.5 0 -2.4 1.5
0 -2.3 1.5 0 -2.2 1.5 0 -2.1 1.5 0
-2 1.5 0 -1.9 1.5 0 -1.8 1.5 0 -1.7
1.5 0 -1.6 1.5 0 -1.5 1.5 0 -1.4 1.5
0 -1.3 1.5 0 -1.2 1.5 0 -1.1 1.5 0
-1 1.5 0 -0.9 1.5 0 -0.8 1.5 0 -0.7
1.5 0 -0.6 1.5 0 -0.5 1.5 0 -0.4 1.5
0 -0.3 1.5 0 -0.2 1.5 0 -0.1 1.5 0
0 1.5 0 0.1 1.5 0 0.2 1.5 0 0.3
1.5 0 0.4 1.5 0 0.5 1.5 0 0.6 1.5
0 0.7 1.5 0 0.8 1.5 0 0.9 1.5 0
1 1.5 0 1.1 1.5 0 1.2 1.5 0 1.3
1.5 0 1.4 1.5 0 1.5 1.5 0 1.6 1.5
0 1.7 1.5 0 1.8 1.5 0 1.9 1.5 0
2 1.5 0 2.1 1.5 0 2.2 1.5 0 2.3
1.5 0 2.4 1.5 0 2.5 1.5 0 -2.5 1.6
0 -2.4 1.6 0 -2.3 1.6 0 -2.2 1.6 0
-2.1 1.6 0 -2 1.6 0 -1.9 1.6 0 -1.8
1.6 0 -1.7 1.6 0 -1.6 1.6 0 -1.5 1.6
0 -1.4 1.6 0 -1.3 1.6 0 -1.2 1.6 0
-1.1 1.6 0 -1 1.6 0 -0.9 1.6 0 -0.8
1.6 0 -0.7 1.6 0 -0.6 1.6 0 -0.5 1.6
0 -0.4 1.6 0 -0.3 1.6 0 -0.2 1.6 0
-0.1 1.6 0 0 1.6 0 0.1 1.6 0 0.2
1.6 0 0.3 1.6 0 0.4 1.6 0 0.5 1.6
0 0.6 1.6 0 0.7 1.6 0 0.8 1.6 0
0.9 1.6 0 1 1.6 0 1.1 1.6 0 1.2
1.6 0 1.3 1.6 0 1.4 1.6 0 1.5 1.6
0 1.6 1.6 0 1.7 1.6 0 1.8 1.6 0
1.9 1.6 0 2 1.6 0 2.1 1.6 0 2.2
1.6 0 2.3 1.6 0 2.4 1.6 0 2.5 1.6
0 -2.5 1.7 0 -2.4 1.7 0 -2.3 1.7 0
-2.2 1.7 0 -2.1 1.7 0 -2 1.7 0 -1.9
1.7 0 -1.8 1.7 0 -1.7 1.7 0 -1.6 1.7
0 -1.5 1.7 0 -1.4 1.7 0 -1.3 1.7 0
-1.2 1.7 0 -1.1 1.7 0 -1 1.7 0 -0.9
1.7 0 -0.8 1.7 0 -0.7 1.7 0 -0.6 1.7
0 -0.5 1.7 0 -0.4 1.7 0 -0.3 1.7 0
-0.2 1.7 0 -0.1 1.7 0 0 1.7 0 0.1
1.7 0 0.2 1.7 0 0.3 1.7 0 0.4 1.7
0 0.5 1.7 0 0.6 1.7 0 0.7 1.7 0
0.8 1.7 0 0.9 1.7 0 1 1.7 0 1.1
1.7 0 1.2 1.7 0 1.3 1.7 0 1.4 1.7
0 1.5 1.7 0 1.6 1.7 0 1.7 1.7 0
1.8 1.7 0 1.9 1.7 0 2 1.7 0 2.1
1.7 0 2.2 1.7 0 2.3 1.7 0 2.4 1.7
0 2.5 1.7 0 -2.5 1.8 0 -2.4 1.8 0
-2.3 1.8 0 -2.2 1.8 0 -2.1 1.8 0 -2
1.8 0 -1.9 1.8 0 -1.8 1.8 0 -1.7 1.8
0 -1.6 1.8 0 -1.5 1.8 0 -1.4 1.8 0
-1.3 1.8 0 -1.2 1.8 0 -1.1 1.8 0 -1
1.8 0 -0.9 1.8 0 -0.8 1.8 0 -0.7 1.8
0 -0.6 1.8 0 -0.5 1.8 0 -0.4 1.8 0
-0.3 1.8 0 -0.2 1.8 0 -0.1 1.8 0 0
1.8 0 0.1 1.8 0 0.2 1.8 0 0.3 1.8
0 0.4 1.8 0 0.5 1.8 0 0.6 1.8 0
0.7 1.8 0 0.8 1.8 0 0.9 1.8 0 1
1.8 0 1.1 1.8 0 1.2 1.8 0 1.3 1.8
0 1.4 1.8 0 1.5 1.8 0 1.6 1.8 0
1.7 1.8 0 1.8 1.8 0 1.9 1.8 0 2
1.8 0 2.1 1.8 0 2.2 1.8 0 2.3 1.8
0 2.4 1.8 0 2.5 1.8 0 -2.5 1.9 0
-2.4 1.9 0 -2.3 1.9 0 -2.2 1.9 0 -2.1
1.9 0 -2 1.9 0 -1.9 1.9 0 -1.8 1.9
0 -1.7 1.9 0 -1.6 1.9 0 -1.5 1.9 0
[...]
CELL_DATA 1250
FIELD attributes 1
Ut 3 1250 float
6.08524 0.219759 -0.404844 10.4508 -0.091812 -1.16462 7.5208 0.686309 -0.827763 11.0302 -0.257746
-1.76362 13.0602 -0.219551 -1.44579 6.87629 0.832558 -0.570062 12.28 -0.0154786 -1.74449
9.98898 -0.0885609 -0.891626 11.3942 0.779868 -0.778859 7.60109 0.729592 -0.199966 13.9067
0.25245 -1.11662 12.8215 0.327929 -1.61244 11.7753 0.39612 -0.641469 13.4042 1.28867
-1.03404 13.9673 0.28078 -0.982238 14.2509 0.46233 -0.68386 7.69754 0.989902 0.0515904
14.3321 0.829272 -1.23754 12.8485 1.02584 -0.161975 15.8274 0.512403 -1.19018 15.7655
0.696987 -0.95799 13.395 0.972023 -0.56771 16.2796 0.251246 -0.452414 14.8635 0.67752
-1.13134 7.30804 1.0335 0.30519 14.9533 0.439918 -0.6454 15.1812 0.572254 -0.757607
11.5684 1.20083 0.751689 14.8578 0.759357 -0.685245 14.8764 0.346809 0.857456 14.1331
0.816897 -0.392155 14.4789 1.27597 -0.739598 13.144 0.159466 0.758803 15.5897 -0.0291257
-0.307479 5.16081 0.439869 -0.107822 16.9902 0.105013 -0.690475 10.0631 0.245626 0.0964327
15.6862 0.130914 -0.386163 13.1517 0.157557 0.526679 13.7802 1.08574 0.820799 14.0025
1.72948 -0.129746 14.864 0.551691 -0.23282 14.1385 0.184808 0.759625 16.0285 0.167032
-0.052063 4.73865 0.118847 0.607454 15.8741 0.17314 -0.566451 8.87253 -0.535619 1.12559
14.6145 1.7398 0.947989 14.3561 1.20596 0.769329 13.2163 1.49755 0.121399 16.4516
-0.0653856 -0.114409 11.9777 -0.104726 0.912659 16.5337 -0.182876 0.113387 13.2864 0.204145
1.07064 14.0917 1.76688 1.06311 14.5942 1.42541 0.626451 17.7047 -0.613984 0.0102688
3.73497 0.0702152 0.772359 14.8154 0.0902246 0.325745 16.958 -1.1646 -0.0667152 8.21612
-0.322463 1.69055 13.8146 1.31858 1.37948 15.5136 -0.734403 0.206805 12.2726 -0.39919
1.52567 14.9969 1.50778 0.632423 16.973 -0.0638292 0.354821 12.8647 0.271473 0.827359
14.9388 1.05035 1.22204 14.9515 0.53852 1.30707 16.925 0.372103 0.127804 13.9252
1.5047 0.355287 16.7748 -0.58222 -0.301724 4.34234 -0.371552 0.367176 8.87711 -0.107843
0.676141 16.1565 -0.847247 0.313371 16.1305 -0.579759 0.5582 11.6211 -0.391767 0.434012
14.5329 1.0007 1.13274 14.8914 0.581314 0.56613 13.507 0.4493 0.44311 16.4096
0.319909 1.3794 17.5408 -0.455046 0.552807 12.2366 0.382865 0.302667 17.2109 0.161491
-0.196444 13.4398 1.26472 0.700998 14.8375 0.257829 1.07916 15.0334 0.292911 0.617699
16.9611 -0.60372 -0.237782 5.10718 -0.697748 0.388583 15.2093 0.0767786 0.427743 17.0482
-1.33608 0.134135 8.56026 -0.0883213 0.840409 17.5711 -1.3536 0.508644 11.7158 -0.0106597
0.945587 16.3638 0.532826 1.14126 14.3542 -0.363462 0.878999 16.9314 -0.9079 0.845674
13.9498 0.17048 0.54456 15.7674 -0.213014 0.796542 13.5065 -0.342837 0.312383 15.5122
0.67069 -0.143473 16.6627 -0.31009 -0.261566 16.7663 0.200823 0.423232 14.6276 -0.100426
0.532333 5.69985 -0.105745 -0.045202 16.5535 -0.274243 0.108455 8.50324 0.377621 -0.124178
17.4283 -0.393271 -0.264206 17.158 -0.286534 0.0565049 11.3862 0.871992 -0.209396 16.2975
0.162496 0.690315 17.1349 -0.635618 -0.0197672 14.4742 -0.659323 0.0163382 16.9876 -0.487219
0.844242 14.9652 -0.585834 0.444534 14.5328 0.198088 -0.26034 17.1411 -0.463272 0.852526
14.3782 -0.13401 0.637955 16.766 0.0285545 0.332066 16.6445 -0.232259 0.0824717 17.3199
0.336578 -0.305732 16.8976 -0.201738 0.248194 5.64504 0.510619 -0.256879 9.64273 1.06003
-0.514138 15.8367 -0.760812 0.221915 15.9953 -0.319565 -0.477189 15.1585 -0.80618 0.738378
15.8678 -0.910465 -0.373325 16.7105 0.105932 0.472258 16.0045 -0.373942 -0.28054 11.1439
1.25683 -0.287085 16.2104 -0.564964 1.07941 15.2548 -0.254004 1.01752 15.9656 -0.658195
0.180089 13.9863 0.528516 0.179843 14.7805 -0.297091 -0.175581 16.167 -0.84515 0.364388
15.6987 -0.576054 0.28293 14.8422 0.592971 0.325425 16.2656 -0.559331 0.912632 17.2472
-0.769662 0.44441 15.8995 -0.805274 1.03188 16.0808 0.0498841 0.241932 15.5 -0.417884
0.460269 6.21119 0.0671934 0.260537 14.6944 -1.25462 -0.107198 16.6271 -0.0866306 -0.215707
15.6935 -2.07796 1.23964 14.1202 -0.12835 0.242217 9.64285 1.26127 0.494302 16.4622
-0.861095 -0.6587 12.9258 0.801619 0.433221 16.7471 -1.4123 -0.476446 12.1227 0.872342
0.218804 16.8543 -0.722148 0.968858 14.9538 -0.547361 -0.525645 16.6576 -0.707891 0.846844
17.5254 -0.762688 0.705508 16.9468 -1.26477 0.082248 15.6377 -0.727723 0.508566 14.0246
0.803522 0.22918 16.3215 -2.28925 0.532931 15.0655 -0.112175 -0.382565 15.08 -1.07195
1.37768 15.5999 -1.23599 0.470595 14.5602 -0.8635 0.389555 17.283 -0.529271 0.218416
6.42542 -0.441994 -0.076995 16.9844 -0.938629 0.201366 10.5608 0.921937 -0.0366725 15.9481
-0.652925 -1.02036 12.928 0.900674 0.15428 17.2482 -1.43582 0.478133 15.6083 -0.885223
0.664411 17.8038 -2.08257 0.570039 16.9401 -0.694106 -0.512565 13.6854 1.03001 0.200428
16.1159 -0.541449 0.0710539 14.9761 -1.04568 1.25114 16.3553 -1.15519 0.300852 15.8033
-0.554397 0.223116 14.8361 0.501974 0.0919366 16.1431 -0.938963 -0.139416 15.3994 -0.875142
1.03669 15.1015 0.242285 -0.0534544 14.5497 -0.558697 0.4353 17.0767 -1.73163 0.218465
14.5218 -0.498044 -0.0532954 17.2592 -2.0254 0.771264 16.0538 -1.18739 0.357714 17.511
-0.299784 0.146931 5.91214 -0.430602 -0.0132602 14.9455 -0.907178 0.887575 17.0763 -0.443744
0.0769348 11.2578 0.246637 0.206886 16.1183 -0.628198 -0.907076 12.7965 1.35266 0.455549
15.1771 -0.365761 -0.0570681 14.8876 -0.511697 0.991032 16.3054 -0.876127 0.587233 16.6242
-1.09158 -0.192366 16.5044 -1.01054 -0.267943 15.8938 0.600383 0.335191 16.1658 -1.06146
-0.54159 15.6934 0.248168 0.0159951 17.1553 -1.11732 0.564834 15.1229 -1.61813 1.22098
17.1234 -1.20123 0.265597 15.5721 0.683025 -0.0963506 14.6952 -1.20739 0.599374 15.1175
-0.916099 -0.148526 15.7398 -1.07166 1.22348 16.8415 -0.625301 -0.164948 15.2956 -1.2998
-0.0761698 18.2087 -0.135575 -0.118132 6.76454 -0.510963 0.0773632 16.492 -0.139442 -0.391617
11.2003 -0.810792 0.270006 16.0623 0.00783348 -0.426919 12.8841 0.742465 0.482399 15.4934
-1.49867 -0.513789 15.0491 -0.857484 -0.103984 16.0046 -0.292345 0.248847 13.7037 -1.8623
0.861386 17.2146 -0.214033 -0.189042 15.9747 -0.689984 0.353376 14.1743 -0.00412555 0.593735
15.494 -0.557456 1.02944 16.2342 0.248446 0.0567912 16.5224 -1.36384 1.19217 16.0052
-0.572589 -0.648879 15.4389 0.151627 0.215341 14.362 -1.72456 0.473882 15.4255 0.500693
0.821126 15.2079 -1.34802 0.107974 15.8676 -1.29272 -0.0675013 15.1596 -0.908544 -0.687919
15.5642 -1.31119 -0.196022 15.4621 -0.0303394 0.825077 14.9295 0.549933 -0.304045 15.8927
-0.32755 0.861736 6.14473 -0.583964 -0.175252 14.3174 -1.15856 -0.653277 10.3175 -1.82583
-0.415657 16.949 -0.451936 0.607433 16.3828 0.434848 0.614775 15.9124 1.07208 -0.581243
14.4382 -1.48888 0.740731 15.8535 -0.540394 0.0328987 15.9189 0.63199 0.0383304 12.2135
-0.425826 -0.341394 15.8925 -0.771062 -0.0634804 16.4241 -1.55296 0.130523 13.9798 -0.277726
-0.376279 16.4716 -0.241579 -0.442581 16.2024 -0.197301 0.316772 14.7341 -1.65432 0.81852
12.5917 -0.0212399 -0.656905 15.7551 -0.904291 -0.619009 15.0093 -1.33673 0.388269 17.3944
-1.43905 0.756011 16.904 -0.46615 -0.0126172 17.2739 0.309534 1.2427 15.0473 -1.0379
-1.0863 14.938 -1.18201 -0.852061 16.4784 -0.93718 -0.147397 15.9065 -0.364118 1.15994
14.4253 -1.48784 -0.286499 17.2907 -0.159131 0.239812 16.3616 0.227536 -0.14686 6.28927
-0.467327 0.0141663 16.6744 0.170313 -0.124479 14.884 -1.05477 0.52866 9.90376 -2.11356
-0.117906 16.2449 -1.02763 -1.10075 17.3806 -1.61678 0.599409 15.2065 -1.29007 0.592529
16.5315 -0.544216 0.457897 11.3126 -1.10718 -0.228784 14.6527 -1.10354 -0.5012 13.4017
-0.474129 0.1677 17.1625 -0.891397 0.103396 16.0322 -1.52699 0.125671 16.1765 -1.3798
1.47241 14.6834 -0.529984 -0.874245 16.2351 0.161678 -0.356858 14.3327 -1.23001 -0.720527
15.5571 -0.247342 1.56581 15.8561 -1.426 -0.853166 12.4494 0.0183758 0.295597 16.3346
-1.47495 0.0923379 15.855 -0.702084 1.31401 14.8345 -1.39242 -0.804549 14.2889 -0.932169
-0.286244 16.3726 0.169572 -0.212157 15.2573 -1.51517 0.318595 18.0016 -1.47402 -0.00454331
15.9413 -1.26884 1.11133 15.7773 -1.62897 0.485601 16.1935 -1.16342 -1.12951 16.1289
-0.701201 0.225798 4.84926 -0.478704 0.218494 15.2972 -1.50532 0.476332 9.62838 -1.68092
0.402743 15.1035 -1.24401 0.319989 12.0557 -1.17626 0.479487 15.9083 -0.392649 -1.63221
16.3345 -0.0401155 -0.424842 16.414 -0.425794 1.27336 15.1648 -1.53804 -0.569233 13.8277
-1.08942 -0.0918702 15.7128 -1.30634 0.0190958 16.5712 -0.201496 -0.140283 12.9918 -0.584646
0.691773 14.5904 -1.58397 1.46319 16.0817 -0.446217 -1.72977 14.9365 -1.08335 -0.227678
16.4838 -0.890437 0.745498 13.3487 0.0569337 0.57915 16.5436 -2.07899 -0.236903 14.3179
-0.569546 0.296192 13.9567 -0.545418 0.139818 14.716 -1.57809 0.260474 16.723 0.415504
-1.13786 16.5083 -1.13409 0.787192 18.7802 -1.50032 -0.367808 15.8927 -0.197213 -1.4127
15.9415 -0.294353 -0.408248 16.0688 -0.933652 -1.36857 14.1192 -0.89288 -0.307901 14.7776
-0.548833 0.669112 15.4327 -0.46885 0.694057 5.22945 -0.694184 0.0509425 15.2297 -1.47586
-0.203764 16.2278 -0.739125 0.572127 14.2268 -1.70146 0.875979 7.66487 -1.07031 0.0515112
13.8439 -2.13304 -0.243447 10.9146 -1.07939 -0.0501368 15.9931 -1.81424 0.57098 16.4646
-0.106197 -0.263239 12.6099 -0.546213 -0.217795 14.5463 -1.25232 0.33422 14.4991 -1.20835
1.16658 16.0484 -0.274027 -0.582832 16.925 -2.40496 -0.17637 16.0669 -1.15619 0.661292
12.9914 -0.611322 0.243821 12.422 -0.244678 -0.371708 16.4193 -0.127472 -0.660944 16.2203
-0.744609 -1.86416 17.4214 -1.51021 0.0474379 15.7889 -1.70736 0.348645 16.3248 -0.70116
-0.488161 13.9328 -0.32689 -0.157111 16.3639 -0.200481 -0.690193 16.01 -1.2698 -0.146805
14.5675 -1.72116 -0.17703 15.6082 -0.693209 1.09236 16.8577 -1.5298 0.412344 15.6443
-1.12628 -0.207912 14.4559 -0.727211 0.208377 15.5705 -0.648319 0.94879 4.45577 -0.930941
0.193823 15.4409 -0.63026 1.03956 8.51724 -0.73064 0.618057 15.7211 -0.413146 -0.691489
16.1358 -1.58564 0.619153 12.0828 -1.24556 0.890675 14.7128 -1.21509 1.11266 10.0142
-0.991183 0.609679 14.4254 -1.03365 -0.457221 16.1999 -2.13476 0.219902 14.1651 -0.350865
0.199686 15.5224 -0.237912 1.13432 11.7957 -0.518733 -0.0744777 13.9364 -0.922299 0.214685
16.3799 -0.369463 -1.62983 15.2019 -0.691065 -0.147924 15.9789 -0.737512 -0.350549 11.1938
-0.482571 -0.735802 12.7343 -0.556059 0.042437 16.3111 -1.25078 0.828106 15.0639 -0.945703
-0.398193 15.6989 -1.24131 -0.17278 15.374 -1.32617 -0.474892 15.2035 -0.69392 0.134592
14.0151 -0.131438 -0.351842 13.0979 -0.597938 -0.81762 15.1594 0.0582422 1.13203 16.6733
-1.45119 0.33408 14.2255 -0.950605 -0.338412 11.9752 -0.651434 -0.534294 15.9524 0.0173486
1.01269 15.3711 -0.667958 0.18406 16.277 -0.371459 0.279077 16.3951 -0.839019 -0.633026
15.7226 -0.544558 -1.0288 13.9597 -1.1508 0.802598 16.5754 -1.94725 -0.453188 3.94824
-0.54065 0.14516 14.8343 -0.887705 0.841877 7.48816 -0.680266 0.601473 15.6769 -0.491996
0.567622 15.0049 -1.11743 0.360226 14.1197 -1.84425 0.431912 15.2367 -1.49268 -0.596139
10.216 -0.659071 0.99801 13.9452 -0.545884 -0.491084 15.5134 -0.152473 0.890167 14.2368
-0.9395 0.0250752 10.2927 -0.423211 0.708417 16.2415 -0.903676 0.313685 14.6097 -1.0225
-0.470508 12.6902 -0.67609 0.0793996 14.7467 -1.12869 0.0144811 15.7852 -0.705196 -0.416369
14.7753 -0.907605 0.0365906 15.0541 -0.894926 -0.208777 14.5084 -0.399213 -0.325309 17.7422
-1.52007 -0.280743 14.7762 -0.170814 -0.204193 12.0624 -0.860858 -0.214634 14.9406 -0.5662
0.743884 16.3984 -0.433781 -1.08725 15.5374 -0.859602 0.0244467 15.2054 -1.22718 -0.600525
14.3958 -0.859263 0.435479 14.1314 -0.397122 0.649756 11.8363 -0.46982 -0.412078 16.3506
-0.500331 0.243663 16.2045 -1.62964 -0.341088 13.9143 -0.880431 0.133202 15.1271 -0.675884
0.457255 15.8255 -0.26121 0.197525 13.992 -0.644464 0.475762 4.69717 -0.0579829 0.198018
14.3732 -1.45222 0.0658223 14.4862 -0.624116 0.307158 9.04696 -0.696528 0.343106 16.9589
-1.23466 0.607712 14.2223 -1.75176 -0.664062 10.8235 -0.15242 0.295081 13.244 -0.295358
-0.522549 13.6723 -0.846083 0.453309 13.9098 -1.97965 -0.446081 12.3689 -0.150675 0.348265
15.6144 -0.886794 1.10843 15.8316 -0.0813257 0.124209 15.6658 -1.10148 -0.557176 13.6524
-0.768104 -0.166793 15.4917 -1.86014 0.237966 12.0473 -0.741174 0.169185 15.0537 -0.459947
-0.0470083 14.4701 -0.978156 -1.29564 13.8071 -0.147637 -0.15763 15.0147 -1.11246 0.121262
14.8988 -0.61291 0.546128 14.5208 -0.989399 -0.611027 14.3856 -1.20927 0.525698 12.0601
-0.858527 -0.221938 15.8712 -0.593609 0.996241 15.8363 -0.48517 -0.171348 15.9927 -1.46043
1.16655 15.1381 -0.00596853 -0.0516497 15.0873 -0.854664 0.294898 11.8167 -0.306602 -0.0834276
15.3449 -0.448495 0.132385 15.1172 -0.946409 0.393623 15.4869 -1.60922 -0.574668 13.3231
-0.480566 0.0299754 15.5291 -0.469381 0.178899 5.55616 -0.170864 0.174237 9.38978 -0.556395
0.509887 14.3828 -1.2669 -0.0212682 14.4343 -0.652858 0.368565 15.6475 -0.97712 0.328356
12.0367 0.189845 0.333887 11.9923 0.21859 0.740543 15.7271 -0.353155 0.98706 13.97
-0.783209 -1.09425 14.557 -1.94062 -0.300419 15.5696 -0.741783 -0.0678366 14.8168 -0.856118
0.279987 15.5769 -0.775401 0.370972 12.4274 -0.102373 0.663468 14.3961 -0.137162 -0.210124
16.8808 -2.50624 -0.0143726 15.2491 -0.41532 0.858433 14.3158 -0.122467 -0.577417 13.6372
-0.424085 0.464831 17.2558 -2.77818 0.115144 15.2336 -0.876419 0.257209 14.8398 -0.0734301
0.190503 14.4672 -0.770667 -0.406165 15.3516 -0.166964 -0.28155 13.1988 -0.553682 0.475078
17.5765 -2.47735 0.285501 14.3746 -0.689282 0.357383 15.6829 -1.62699 -0.389842 15.1453
-0.645733 0.0187034 15.1899 -1.12309 -1.03086 15.2459 -0.653614 0.444554 14.5741 0.0464311
-0.373954 12.3711 -0.0932321 0.460451 16.4659 -1.40972 0.0889604 13.9912 0.0266374 0.831282
13.1 0.0291442 0.496372 15.2489 -0.424673 0.837833 13.1124 -0.0311265 -0.576134 4.37622
-0.373911 0.539138 14.8974 -0.0857257 -0.109661 13.2407 0.0287372 -0.223488 13.3177 0.33012
0.391733 16.3457 -0.336687 0.203005 9.01364 -0.622304 1.05456 15.3694 -1.0954 -0.512261
14.4784 -0.381007 -0.623402 14.5423 -0.394303 -0.386155 12.8077 -0.0485925 0.826491 15.0631
-1.17894 0.212361 12.9953 -0.516371 0.566078 15.1297 -0.486691 -1.80241 14.3381 0.0389361
0.208965 13.7327 0.174527 0.24023 15.7821 -0.0537021 0.114971 14.1758 -0.18225 0.644346
13.7757 0.55974 0.549149 13.7745 -0.258123 0.909173 14.0393 0.109509 0.249657 14.461
-0.0598105 0.730537 15.4953 -1.48062 0.234883 16.34 0.805159 0.254367 13.5369 -0.27425
-0.356468 15.6007 0.0846907 -0.546599 15.3924 -0.487007 0.279043 13.6562 0.342286 -0.0229227
14.827 -1.06761 -0.519711 14.4318 0.0235635 0.15069 12.6287 0.520092 0.81495 15.4682
0.283047 -1.45201 13.8056 -0.388579 -0.0452008 15.3991 0.221046 -0.614405 13.9907 -0.705607
-0.124003 12.2493 0.0838501 0.489258 4.2242 -0.607742 0.330509 15.1489 -1.81791 -1.05753
15.24 0.214038 -0.414554 11.1279 -1.02605 0.661769 11.9467 -0.381645 0.87395 14.9319
0.0452777 -0.24856 14.6502 0.627403 0.402658 12.7554 -0.654544 1.3503 14.1811 0.845109
-0.166797 14.3266 0.430651 0.820453 14.3187 0.195608 0.276775 16.2667 0.941621 0.811325
14.9498 0.616777 0.229662 13.553 0.117404 1.41281 15.1418 -0.356561 -0.897976 14.48
-1.11781 -0.597539 14.6115 -0.351838 0.262433 16.2688 0.13246 0.379208 14.9101 0.0149526
-0.422743 13.7954 0.0138334 -0.243523 12.2916 0.168809 0.793827 15.2158 -0.851448 0.0461911
13.9948 0.546428 -0.528851 15.0855 0.782756 -0.124303 12.1663 1.19498 0.389956 14.5963
-0.434761 -0.376194 15.6963 0.0900831 -0.166518 13.621 0.467146 0.737956 14.2361 1.05792
1.00821 14.2027 0.554875 1.34352 14.7605 -1.4734 -0.0359393 14.1522 -0.320369 0.599999
13.3083 -0.174413 0.379653 14.5328 0.062202 -0.00269629 3.52591 -0.986919 0.481211 10.1503
-1.23175 1.16681 15.602 0.733091 -0.746327 13.6688 -0.0842589 0.557496 10.4331 -0.477185
1.38561 12.4802 -0.0485281 1.12028 13.3721 -0.255364 0.176424 14.5641 0.00375104 -0.638935
14.7901 0.851216 0.157344 12.4853 0.53271 0.847947 14.2836 -0.580866 -0.297805 15.3206
0.19439 -0.128952 15.0917 -0.777986 0.142734 14.1489 -0.298276 -0.328619 12.4819 0.620983
0.641752 14.189 0.572478 -0.0494469 14.2921 -0.39081 0.0718651 14.4954 0.969938 0.547671
13.3352 0.0921068 1.71097 12.9678 1.35646 0.191233 14.4653 1.32517 -0.341235 14.9528
-0.219714 1.62157 14.0143 -0.927299 0.341636 13.5062 -6.16839e-05 0.380162 14.4428 0.356043
0.397892 13.8162 0.696296 -0.559772 14.395 0.836387 0.807191 14.7258 -0.44225 0.309811
12.7744 -0.342033 -0.171115 4.97725 -1.08872 0.149202 14.7088 -0.0382764 -0.381418 7.29662
-1.26247 0.221275 13.7574 0.766368 -0.0186855 11.1153 -0.782918 0.118572 13.4595 0.593862
0.114565 15.0177 -0.626884 -0.351416 15.0128 -1.04114 0.328575 13.4725 -0.597179 0.264047
13.4121 -0.359769 0.17621 12.3782 0.717987 0.285384 13.1766 0.324051 1.24596 15.2856
0.425194 -0.234405 14.8132 1.46294 0.273519 13.1998 -0.143052 1.66745 14.2186 1.4872
-0.421593 15.1208 0.5553 1.3819 11.8835 0.491831 0.556094 13.7892 -0.191562 -0.406781
14.4156 0.932478 0.535016 15.0411 0.283961 0.675214 14.1483 0.663367 0.623896 14.4399
-0.986969 -0.259999 13.8916 -0.104241 0.241024 14.0318 -0.137963 -0.189583 14.4887 1.08995
1.82191 15.29 0.0585542 -0.361478 14.0842 -0.463275 0.14235 14.5443 -0.111672 0.552473
14.027 -0.298229 0.388318 5.18803 -0.912901 -0.679673 8.53497 -1.22585 -1.07845 15.8027
1.04265 0.176059 11.6683 -0.880934 -0.739044 14.509 -0.882524 -0.736209 13.1073 0.351774
1.35125 14.4933 -0.684556 -0.316834 12.8188 0.281718 -0.544177 13.6826 -0.65958 0.125191
13.6366 -0.0645562 0.195048 13.6347 1.1504 1.26323 14.1733 0.232058 0.884299 13.2066
0.592077 -0.363834 13.2581 -0.4279 -0.252755 14.2924 1.43975 1.54557 16.8781 -0.24689
0.256671 13.7336 0.0221786 -0.0994466 13.9899 -0.62998 -0.656658 13.6452 -0.868088 -0.0612217
14.2268 -0.018727 0.299777 15.0094 0.924036 0.41883 13.9658 -0.904696 0.478878 14.7575
-0.680378 -0.422806 15.3993 0.31491 0.505476 13.7127 -0.00391306 0.5348 15.185 0.447968
1.44632 12.6262 0.198562 0.923412 15.3611 -0.339109 0.302697 13.5146 -0.812236 -0.568622
4.9543 -1.32584 -0.336075 15.311 0.926129 1.06281 15.9445 -0.238195 0.307435 9.72933
-1.4241 -0.838755 14.0446 -0.272424 -0.530058 11.5983 -0.38944 -0.853478 14.9327 -0.60381
0.0556189 14.0587 -0.753979 -0.683281 12.4686 -0.403409 -0.650916 15.1185 1.72002 0.960236
12.9549 -0.0438806 -0.437873 14.1486 -0.783003 -0.304367 14.0284 -0.340894 -0.184791 12.2447
-1.12824 -0.837092 15.0154 -0.742287 0.0797099 14.9493 -0.302597 0.114843 14.8884 -1.02596
-0.526167 15.5653 0.458854 0.934476 13.6216 0.47246 0.3976 15.422 1.06354 -0.850661
14.0597 -0.176738 -0.27781 15.137 0.403648 1.05656 15.5826 0.0449499 0.303257 14.5367
-0.887588 -0.723433 14.3593 0.905824 1.28785 15.3071 -0.337862 -0.486154 14.4074 -1.15756
-0.49127 14.9215 -0.443525 -1.07958 6.43114 -1.81547 -0.302929 9.49625 -1.63798 -0.576857
14.457 -0.924524 -0.692242 14.5116 -0.557251 -0.322297 12.5757 0.514445 -0.753266 14.4333
1.35936 -0.64445 12.5849 0.00545245 -0.479602 13.4286 -0.403648 -0.936442 13.871 -0.292489
0.781069 12.6679 0.922655 -0.389625 13.7392 0.503608 0.158383 13.9156 0.396566 1.03356
13.244 -0.548614 -0.776292 12.181 -1.56355 -0.820645 14.5286 -0.609854 -0.0652521 15.4408
-1.12235 -0.466097 15.7223 0.999734 -1.45427 15.2458 0.583285 1.11849 12.2274 -0.426641
-0.355646 14.2258 -0.416147 -0.0990674 14.3932 -0.757466 -0.0928031 15.2979 0.38199 -0.0476726
14.5154 -0.618965 -1.17005 15.2142 -0.580465 -0.396812 15.552 -1.23639 -0.641781 13.97
0.972398 -0.467417 13.1171 0.298011 1.43373 11.1476 0.570561 -0.320931 14.6596 -0.0140109
0.802266 15.0121 0.639355 -1.07282 14.5653 -1.12799 -0.301973 7.74377 -1.6272 -0.390415
14.9515 0.610002 0.685222 10.2605 -1.2602 -0.733541 15.2671 -0.447447 -0.783487 12.6393
1.20271 -0.485709 13.4684 0.0260532 -0.0167442 14.2176 -1.91976 -1.22101 16.2665 0.601214
0.198348 13.9178 -0.190379 0.0712544 14.8921 0.36231 -1.59884 13.7504 -0.0917745 -0.598769
14.2147 -0.874388 -0.455179 14.0998 -0.305315 -0.325424 14.79 -0.246233 -0.206545 13.2348
0.529343 1.48146 14.236 0.669638 -0.131041 13.6396 -0.324123 -0.57944 14.3478 0.135758
0.65414 14.0555 -0.355314 0.00845098 14.9592 0.496094 0.336807 13.9944 -0.681541 -1.70698