# vtk DataFile Version 2.0
sampleSurface
ASCII
DATASET POLYDATA
POINTS 1326 float
0 -2.5 0 0 -2.5 0.1 0 -2.4 0.1 0 -2.4
0 0 -2.3 0.1 0 -2.3 0 0 -2.2 0.1
0 -2.2 0 0 -2.1 0.1 0 -2.1 0 0
-2 0.1 0 -2 0 0 -1.9 0.1 0 -1.9
0 0 -1.8 0.1 0 -1.8 0 0 -1.7 0.1
0 -1.7 0 0 -1.6 0.1 0 -1.6 0 0
-1.5 0.1 0 -1.5 0 0 -1.4 0.1 0 -1.4
0 0 -1.3 0.1 0 -1.3 0 0 -1.2 0.1
0 -1.2 0 0 -1.1 0.1 0 -1.1 0 0
-1 0.1 0 -1 0 0 -0.9 0.1 0 -0.9
0 0 -0.8 0.1 0 -0.8 0 0 -0.7 0.1
0 -0.7 0 0 -0.6 0.1 0 -0.6 0 0
-0.5 0.1 0 -0.5 0 0 -0.4 0.1 0 -0.4
0 0 -0.3 0.1 0 -0.3 0 0 -0.2 0.1
0 -0.2 0 0 -0.1 0.1 0 -0.1 0 0
0 0.1 0 0 0 0 0.1 0.1 0 0.1
0 0 0.2 0.1 0 0.2 0 0 0.3 0.1
0 0.3 0 0 0.4 0.1 0 0.4 0 0
0.5 0.1 0 0.5 0 0 0.6 0.1 0 0.6
0 0 0.7 0.1 0 0.7 0 0 0.8 0.1
0 0.8 0 0 0.9 0.1 0 0.9 0 0
1 0.1 0 1 0 0 1.1 0.1 0 1.1
0 0 1.2 0.1 0 1.2 0 0 1.3 0.1
0 1.3 0 0 1.4 0.1 0 1.4 0 0
1.5 0.1 0 1.5 0 0 1.6 0.1 0 1.6
0 0 1.7 0.1 0 1.7 0 0 1.8 0.1
0 1.8 0 0 1.9 0.1 0 1.9 0 0
2 0.1 0 2 0 0 2.1 0.1 0 2.1
0 0 2.2 0.1 0 2.2 0 0 2.3 0.1
0 2.3 0 0 2.4 0.1 0 2.4 0 0
2.5 0.1 0 2.5 0 0 -2.5 0.2 0 -2.4
0.2 0 -2.3 0.2 0 -2.2 0.2 0 -2.1 0.2
0 -2 0.2 0 -1.9 0.2 0 -1.8 0.2 0
-1.7 0.2 0 -1.6 0.2 0 -1.5 0.2 0 -1.4
0.2 0 -1.3 0.2 0 -1.2 0.2 0 -1.1 0.2
0 -1 0.2 0 -0.9 0.2 0 -0.8 0.2 0
-0.7 0.2 0 -0.6 0.2 0 -0.5 0.2 0 -0.4
0.2 0 -0.3 0.2 0 -0.2 0.2 0 -0.1 0.2
0 0 0.2 0 0.1 0.2 0 0.2 0.2 0
0.3 0.2 0 0.4 0.2 0 0.5 0.2 0 0.6
0.2 0 0.7 0.2 0 0.8 0.2 0 0.9 0.2
0 1 0.2 0 1.1 0.2 0 1.2 0.2 0
1.3 0.2 0 1.4 0.2 0 1.5 0.2 0 1.6
0.2 0 1.7 0.2 0 1.8 0.2 0 1.9 0.2
0 2 0.2 0 2.1 0.2 0 2.2 0.2 0
2.3 0.2 0 2.4 0.2 0 2.5 0.2 0 -2.5
0.3 0 -2.4 0.3 0 -2.3 0.3 0 -2.2 0.3
0 -2.1 0.3 0 -2 0.3 0 -1.9 0.3 0
-1.8 0.3 0 -1.7 0.3 0 -1.6 0.3 0 -1.5
0.3 0 -1.4 0.3 0 -1.3 0.3 0 -1.2 0.3
0 -1.1 0.3 0 -1 0.3 0 -0.9 0.3 0
-0.8 0.3 0 -0.7 0.3 0 -0.6 0.3 0 -0.5
0.3 0 -0.4 0.3 0 -0.3 0.3 0 -0.2 0.3
0 -0.1 0.3 0 0 0.3 0 0.1 0.3 0
0.2 0.3 0 0.3 0.3 0 0.4 0.3 0 0.5
0.3 0 0.6 0.3 0 0.7 0.3 0 0.8 0.3
0 0.9 0.3 0 1 0.3 0 1.1 0.3 0
1.2 0.3 0 1.3 0.3 0 1.4 0.3 0 1.5
0.3 0 1.6 0.3 0 1.7 0.3 0 1.8 0.3
0 1.9 0.3 0 2 0.3 0 2.1 0.3 0
2.2 0.3 0 2.3 0.3 0 2.4 0.3 0 2.5
0.3 0 -2.5 0.4 0 -2.4 0.4 0 -2.3 0.4
0 -2.2 0.4 0 -2.1 0.4 0 -2 0.4 0
-1.9 0.4 0 -1.8 0.4 0 -1.7 0.4 0 -1.6
0.4 0 -1.5 0.4 0 -1.4 0.4 0 -1.3 0.4
0 -1.2 0.4 0 -1.1 0.4 0 -1 0.4 0
-0.9 0.4 0 -0.8 0.4 0 -0.7 0.4 0 -0.6
0.4 0 -0.5 0.4 0 -0.4 0.4 0 -0.3 0.4
0 -0.2 0.4 0 -0.1 0.4 0 0 0.4 0
0.1 0.4 0 0.2 0.4 0 0.3 0.4 0 0.4
0.4 0 0.5 0.4 0 0.6 0.4 0 0.7 0.4
0 0.8 0.4 0 0.9 0.4 0 1 0.4 0
1.1 0.4 0 1.2 0.4 0 1.3 0.4 0 1.4
0.4 0 1.5 0.4 0 1.6 0.4 0 1.7 0.4
0 1.8 0.4 0 1.9 0.4 0 2 0.4 0
2.1 0.4 0 2.2 0.4 0 2.3 0.4 0 2.4
0.4 0 2.5 0.4 0 -2.5 0.5 0 -2.4 0.5
0 -2.3 0.5 0 -2.2 0.5 0 -2.1 0.5 0
-2 0.5 0 -1.9 0.5 0 -1.8 0.5 0 -1.7
0.5 0 -1.6 0.5 0 -1.5 0.5 0 -1.4 0.5
0 -1.3 0.5 0 -1.2 0.5 0 -1.1 0.5 0
-1 0.5 0 -0.9 0.5 0 -0.8 0.5 0 -0.7
0.5 0 -0.6 0.5 0 -0.5 0.5 0 -0.4 0.5
0 -0.3 0.5 0 -0.2 0.5 0 -0.1 0.5 0
0 0.5 0 0.1 0.5 0 0.2 0.5 0 0.3
0.5 0 0.4 0.5 0 0.5 0.5 0 0.6 0.5
0 0.7 0.5 0 0.8 0.5 0 0.9 0.5 0
1 0.5 0 1.1 0.5 0 1.2 0.5 0 1.3
0.5 0 1.4 0.5 0 1.5 0.5 0 1.6 0.5
0 1.7 0.5 0 1.8 0.5 0 1.9 0.5 0
2 0.5 0 2.1 0.5 0 2.2 0.5 0 2.3
0.5 0 2.4 0.5 0 2.5 0.5 0 -2.5 0.6
0 -2.4 0.6 0 -2.3 0.6 0 -2.2 0.6 0
-2.1 0.6 0 -2 0.6 0 -1.9 0.6 0 -1.8
0.6 0 -1.7 0.6 0 -1.6 0.6 0 -1.5 0.6
0 -1.4 0.6 0 -1.3 0.6 0 -1.2 0.6 0
-1.1 0.6 0 -1 0.6 0 -0.9 0.6 0 -0.8
0.6 0 -0.7 0.6 0 -0.6 0.6 0 -0.5 0.6
0 -0.4 0.6 0 -0.3 0.6 0 -0.2 0.6 0
-0.1 0.6 0 0 0.6 0 0.1 0.6 0 0.2
0.6 0 0.3 0.6 0 0.4 0.6 0 0.5 0.6
0 0.6 0.6 0 0.7 0.6 0 0.8 0.6 0
0.9 0.6 0 1 0.6 0 1.1 0.6 0 1.2
0.6 0 1.3 0.6 0 1.4 0.6 0 1.5 0.6
0 1.6 0.6 0 1.7 0.6 0 1.8 0.6 0
1.9 0.6 0 2 0.6 0 2.1 0.6 0 2.2
0.6 0 2.3 0.6 0 2.4 0.6 0 2.5 0.6
0 -2.5 0.7 0 -2.4 0.7 0 -2.3 0.7 0
-2.2 0.7 0 -2.1 0.7 0 -2 0.7 0 -1.9
0.7 0 -1.8 0.7 0 -1.7 0.7 0 -1.6 0.7
0 -1.5 0.7 0 -1.4 0.7 0 -1.3 0.7 0
-1.2 0.7 0 -1.1 0.7 0 -1 0.7 0 -0.9
0.7 0 -0.8 0.7 0 -0.7 0.7 0 -0.6 0.7
0 -0.5 0.7 0 -0.4 0.7 0 -0.3 0.7 0
-0.2 0.7 0 -0.1 0.7 0 0 0.7 0 0.1
0.7 0 0.2 0.7 0 0.3 0.7 0 0.4 0.7
0 0.5 0.7 0 0.6 0.7 0 0.7 0.7 0
0.8 0.7 0 0.9 0.7 0 1 0.7 0 1.1
0.7 0 1.2 0.7 0 1.3 0.7 0 1.4 0.7
0 1.5 0.7 0 1.6 0.7 0 1.7 0.7 0
1.8 0.7 0 1.9 0.7 0 2 0.7 0 2.1
0.7 0 2.2 0.7 0 2.3 0.7 0 2.4 0.7
0 2.5 0.7 0 -2.5 0.8 0 -2.4 0.8 0
-2.3 0.8 0 -2.2 0.8 0 -2.1 0.8 0 -2
0.8 0 -1.9 0.8 0 -1.8 0.8 0 -1.7 0.8
0 -1.6 0.8 0 -1.5 0.8 0 -1.4 0.8 0
-1.3 0.8 0 -1.2 0.8 0 -1.1 0.8 0 -1
0.8 0 -0.9 0.8 0 -0.8 0.8 0 -0.7 0.8
0 -0.6 0.8 0 -0.5 0.8 0 -0.4 0.8 0
-0.3 0.8 0 -0.2 0.8 0 -0.1 0.8 0 0
0.8 0 0.1 0.8 0 0.2 0.8 0 0.3 0.8
0 0.4 0.8 0 0.5 0.8 0 0.6 0.8 0
0.7 0.8 0 0.8 0.8 0 0.9 0.8 0 1
0.8 0 1.1 0.8 0 1.2 0.8 0 1.3 0.8
0 1.4 0.8 0 1.5 0.8 0 1.6 0.8 0
1.7 0.8 0 1.8 0.8 0 1.9 0.8 0 2
0.8 0 2.1 0.8 0 2.2 0.8 0 2.3 0.8
0 2.4 0.8 0 2.5 0.8 0 -2.5 0.9 0
-2.4 0.9 0 -2.3 0.9 0 -2.2 0.9 0 -2.1
0.9 0 -2 0.9 0 -1.9 0.9 0 -1.8 0.9
0 -1.7 0.9 0 -1.6 0.9 0 -1.5 0.9 0
-1.4 0.9 0 -1.3 0.9 0 -1.2 0.9 0 -1.1
0.9 0 -1 0.9 0 -0.9 0.9 0 -0.8 0.9
0 -0.7 0.9 0 -0.6 0.9 0 -0.5 0.9 0
-0.4 0.9 0 -0.3 0.9 0 -0.2 0.9 0 -0.1
0.9 0 0 0.9 0 0.1 0.9 0 0.2 0.9
0 0.3 0.9 0 0.4 0.9 0 0.5 0.9 0
0.6 0.9 0 0.7 0.9 0 0.8 0.9 0 0.9
0.9 0 1 0.9 0 1.1 0.9 0 1.2 0.9
0 1.3 0.9 0 1.4 0.9 0 1.5 0.9 0
1.6 0.9 0 1.7 0.9 0 1.8 0.9 0 1.9
0.9 0 2 0.9 0 2.1 0.9 0 2.2 0.9
0 2.3 0.9 0 2.4 0.9 0 2.5 0.9 0
-2.5 1 0 -2.4 1 0 -2.3 1 0 -2.2
1 0 -2.1 1 0 -2 1 0 -1.9 1
0 -1.8 1 0 -1.7 1 0 -1.6 1 0
-1.5 1 0 -1.4 1 0 -1.3 1 0 -1.2
1 0 -1.1 1 0 -1 1 0 -0.9 1
0 -0.8 1 0 -0.7 1 0 -0.6 1 0
-0.5 1 0 -0.4 1 0 -0.3 1 0 -0.2
1 0 -0.1 1 0 0 1 0 0.1 1
0 0.2 1 0 0.3 1 0 0.4 1 0
0.5 1 0 0.6 1 0 0.7 1 0 0.8
1 0 0.9 1 0 1 1 0 1.1 1
0 1.2 1 0 1.3 1 0 1.4 1 0
1.5 1 0 1.6 1 0 1.7 1 0 1.8
1 0 1.9 1 0 2 1 0 2.1 1
0 2.2 1 0 2.3 1 0 2.4 1 0
2.5 1 0 -2.5 1.1 0 -2.4 1.1 0 -2.3
1.1 0 -2.2 1.1 0 -2.1 1.1 0 -2 1.1
0 -1.9 1.1 0 -1.8 1.1 0 -1.7 1.1 0
-1.6 1.1 0 -1.5 1.1 0 -1.4 1.1 0 -1.3
1.1 0 -1.2 1.1 0 -1.1 1.1 0 -1 1.1
0 -0.9 1.1 0 -0.8 1.1 0 -0.7 1.1 0
-0.6 1.1 0 -0.5 1.1 0 -0.4 1.1 0 -0.3
1.1 0 -0.2 1.1 0 -0.1 1.1 0 0 1.1
0 0.1 1.1 0 0.2 1.1 0 0.3 1.1 0
0.4 1.1 0 0.5 1.1 0 0.6 1.1 0 0.7
1.1 0 0.8 1.1 0 0.9 1.1 0 1 1.1
0 1.1 1.1 0 1.2 1.1 0 1.3 1.1 0
1.4 1.1 0 1.5 1.1 0 1.6 1.1 0 1.7
1.1 0 1.8 1.1 0 1.9 1.1 0 2 1.1
0 2.1 1.1 0 2.2 1.1 0 2.3 1.1 0
2.4 1.1 0 2.5 1.1 0 -2.5 1.2 0 -2.4
1.2 0 -2.3 1.2 0 -2.2 1.2 0 -2.1 1.2
0 -2 1.2 0 -1.9 1.2 0 -1.8 1.2 0
-1.7 1.2 0 -1.6 1.2 0 -1.5 1.2 0 -1.4
1.2 0 -1.3 1.2 0 -1.2 1.2 0 -1.1 1.2
0 -1 1.2 0 -0.9 1.2 0 -0.8 1.2 0
-0.7 1.2 0 -0.6 1.2 0 -0.5 1.2 0 -0.4
1.2 0 -0.3 1.2 0 -0.2 1.2 0 -0.1 1.2
0 0 1.2 0 0.1 1.2 0 0.2 1.2 0
0.3 1.2 0 0.4 1.2 0 0.5 1.2 0 0.6
1.2 0 0.7 1.2 0 0.8 1.2 0 0.9 1.2
0 1 1.2 0 1.1 1.2 0 1.2 1.2 0
1.3 1.2 0 1.4 1.2 0 1.5 1.2 0 1.6
1.2 0 1.7 1.2 0 1.8 1.2 0 1.9 1.2
0 2 1.2 0 2.1 1.2 0 2.2 1.2 0
2.3 1.2 0 2.4 1.2 0 2.5 1.2 0 -2.5
1.3 0 -2.4 1.3 0 -2.3 1.3 0 -2.2 1.3
0 -2.1 1.3 0 -2 1.3 0 -1.9 1.3 0
-1.8 1.3 0 -1.7 1.3 0 -1.6 1.3 0 -1.5
1.3 0 -1.4 1.3 0 -1.3 1.3 0 -1.2 1.3
0 -1.1 1.3 0 -1 1.3 0 -0.9 1.3 0
-0.8 1.3 0 -0.7 1.3 0 -0.6 1.3 0 -0.5
1.3 0 -0.4 1.3 0 -0.3 1.3 0 -0.2 1.3
0 -0.1 1.3 0 0 1.3 0 0.1 1.3 0
0.2 1.3 0 0.3 1.3 0 0.4 1.3 0 0.5
1.3 0 0.6 1.3 0 0.7 1.3 0 0.8 1.3
0 0.9 1.3 0 1 1.3 0 1.1 1.3 0
1.2 1.3 0 1.3 1.3 0 1.4 1.3 0 1.5
1.3 0 1.6 1.3 0 1.7 1.3 0 1.8 1.3
0 1.9 1.3 0 2 1.3 0 2.1 1.3 0
2.2 1.3 0 2.3 1.3 0 2.4 1.3 0 2.5
1.3 0 -2.5 1.4 0 -2.4 1.4 0 -2.3 1.4
0 -2.2 1.4 0 -2.1 1.4 0 -2 1.4 0
-1.9 1.4 0 -1.8 1.4 0 -1.7 1.4 0 -1.6
1.4 0 -1.5 1.4 0 -1.4 1.4 0 -1.3 1.4
0 -1.2 1.4 0 -1.1 1.4 0 -1 1.4 0
-0.9 1.4 0 -0.8 1.4 0 -0.7 1.4 0 -0.6
1.4 0 -0.5 1.4 0 -0.4 1.4 0 -0.3 1.4
0 -0.2 1.4 0 -0.1 1.4 0 0 1.4 0
0.1 1.4 0 0.2 1.4 0 0.3 1.4 0 0.4
1.4 0 0.5 1.4 0 0.6 1.4 0 0.7 1.4
0 0.8 1.4 0 0.9 1.4 0 1 1.4 0
1.1 1.4 0 1.2 1.4 0 1.3 1.4 0 1.4
1.4 0 1.5 1.4 0 1.6 1.4 0 1.7 1.4
0 1.8 1.4 0 1.9 1.4 0 2 1.4 0
2.1 1.4 0 2.2 1.4 0 2.3 1.4 0 2.4
1.4 0 2.5 1.4 0 -2.5 1.5 0 -2.4 1.5
0 -2.3 1.5 0 -2.2 1.5 0 -2.1 1.5 0
-2 1.5 0 -1.9 1.5 0 -1.8 1.5 0 -1.7
1.5 0 -1.6 1.5 0 -1.5 1.5 0 -1.4 1.5
0 -1.3 1.5 0 -1.2 1.5 0 -1.1 1.5 0
-1 1.5 0 -0.9 1.5 0 -0.8 1.5 0 -0.7
1.5 0 -0.6 1.5 0 -0.5 1.5 0 -0.4 1.5
0 -0.3 1.5 0 -0.2 1.5 0 -0.1 1.5 0
0 1.5 0 0.1 1.5 0 0.2 1.5 0 0.3
1.5 0 0.4 1.5 0 0.5 1.5 0 0.6 1.5
0 0.7 1.5 0 0.8 1.5 0 0.9 1.5 0
1 1.5 0 1.1 1.5 0 1.2 1.5 0 1.3
1.5 0 1.4 1.5 0 1.5 1.5 0 1.6 1.5
0 1.7 1.5 0 1.8 1.5 0 1.9 1.5 0
2 1.5 0 2.1 1.5 0 2.2 1.5 0 2.3
1.5 0 2.4 1.5 0 2.5 1.5 0 -2.5 1.6
0 -2.4 1.6 0 -2.3 1.6 0 -2.2 1.6 0
-2.1 1.6 0 -2 1.6 0 -1.9 1.6 0 -1.8
1.6 0 -1.7 1.6 0 -1.6 1.6 0 -1.5 1.6
0 -1.4 1.6 0 -1.3 1.6 0 -1.2 1.6 0
-1.1 1.6 0 -1 1.6 0 -0.9 1.6 0 -0.8
1.6 0 -0.7 1.6 0 -0.6 1.6 0 -0.5 1.6
0 -0.4 1.6 0 -0.3 1.6 0 -0.2 1.6 0
-0.1 1.6 0 0 1.6 0 0.1 1.6 0 0.2
1.6 0 0.3 1.6 0 0.4 1.6 0 0.5 1.6
0 0.6 1.6 0 0.7 1.6 0 0.8 1.6 0
0.9 1.6 0 1 1.6 0 1.1 1.6 0 1.2
1.6 0 1.3 1.6 0 1.4 1.6 0 1.5 1.6
0 1.6 1.6 0 1.7 1.6 0 1.8 1.6 0
1.9 1.6 0 2 1.6 0 2.1 1.6 0 2.2
1.6 0 2.3 1.6 0 2.4 1.6 0 2.5 1.6
0 -2.5 1.7 0 -2.4 1.7 0 -2.3 1.7 0
-2.2 1.7 0 -2.1 1.7 0 -2 1.7 0 -1.9
1.7 0 -1.8 1.7 0 -1.7 1.7 0 -1.6 1.7
0 -1.5 1.7 0 -1.4 1.7 0 -1.3 1.7 0
-1.2 1.7 0 -1.1 1.7 0 -1 1.7 0 -0.9
1.7 0 -0.8 1.7 0 -0.7 1.7 0 -0.6 1.7
0 -0.5 1.7 0 -0.4 1.7 0 -0.3 1.7 0
-0.2 1.7 0 -0.1 1.7 0 0 1.7 0 0.1
1.7 0 0.2 1.7 0 0.3 1.7 0 0.4 1.7
0 0.5 1.7 0 0.6 1.7 0 0.7 1.7 0
0.8 1.7 0 0.9 1.7 0 1 1.7 0 1.1
1.7 0 1.2 1.7 0 1.3 1.7 0 1.4 1.7
0 1.5 1.7 0 1.6 1.7 0 1.7 1.7 0
1.8 1.7 0 1.9 1.7 0 2 1.7 0 2.1
1.7 0 2.2 1.7 0 2.3 1.7 0 2.4 1.7
0 2.5 1.7 0 -2.5 1.8 0 -2.4 1.8 0
-2.3 1.8 0 -2.2 1.8 0 -2.1 1.8 0 -2
1.8 0 -1.9 1.8 0 -1.8 1.8 0 -1.7 1.8
0 -1.6 1.8 0 -1.5 1.8 0 -1.4 1.8 0
-1.3 1.8 0 -1.2 1.8 0 -1.1 1.8 0 -1
1.8 0 -0.9 1.8 0 -0.8 1.8 0 -0.7 1.8
0 -0.6 1.8 0 -0.5 1.8 0 -0.4 1.8 0
-0.3 1.8 0 -0.2 1.8 0 -0.1 1.8 0 0
1.8 0 0.1 1.8 0 0.2 1.8 0 0.3 1.8
0 0.4 1.8 0 0.5 1.8 0 0.6 1.8 0
0.7 1.8 0 0.8 1.8 0 0.9 1.8 0 1
1.8 0 1.1 1.8 0 1.2 1.8 0 1.3 1.8
0 1.4 1.8 0 1.5 1.8 0 1.6 1.8 0
1.7 1.8 0 1.8 1.8 0 1.9 1.8 0 2
1.8 0 2.1 1.8 0 2.2 1.8 0 2.3 1.8
0 2.4 1.8 0 2.5 1.8 0 -2.5 1.9 0
-2.4 1.9 0 -2.3 1.9 0 -2.2 1.9 0 -2.1
1.9 0 -2 1.9 0 -1.9 1.9 0 -1.8 1.9
0 -1.7 1.9 0 -1.6 1.9 0 -1.5 1.9 0
[...]
CELL_DATA 1250
FIELD attributes 1
Ut 3 1250 float
6.53175 -0.417727 0.0209722 10.6292 -0.238549 0.0156452 5.65586 -0.569925 0.0645712 10.4939 -0.535544
0.0880998 13.2841 0.0884961 -0.285169 5.5543 -0.157856 0.153892 13.6674 -0.0288957 0.0351138
11.3812 -0.507718 0.301531 13.2037 -0.44348 0.183472 6.35643 0.0972333 -0.285805 14.3441
0.171159 -0.666451 14.533 0.37384 -0.0656195 9.66607 -0.247167 -0.314745 11.6638 -0.62224
0.091659 13.7207 0.470878 0.0650233 15.3439 0.432842 -0.859605 6.61204 0.173938 0.0387333
15.4116 0.935151 -0.271376 10.2 0.00363583 -0.367009 12.2249 0.587936 -0.00394654 14.1891
0.586407 0.0250981 9.9424 0.0048016 -0.989612 13.8693 0.55659 -1.10983 13.6318 0.0470086
-0.208355 5.01209 0.357742 -0.31784 12.3916 0.811616 -1.18052 14.1442 0.839857 -0.472222
8.70128 0.414381 -0.657581 14.2745 0.305532 -0.133556 10.2076 0.955398 -0.886986 11.6539
0.244234 -0.94792 13.9257 0.152636 -0.0516997 11.8468 1.14751 -1.02073 13.5567 0.370059
-1.10002 5.4061 0.481887 -0.135135 14.3032 0.744716 -0.601295 8.73837 0.893034 -0.308221
14.4963 0.784862 -0.478841 10.0967 1.3262 -0.741628 11.5221 0.73227 -0.626187 12.6552
0.502497 -0.43066 14.0248 0.660601 0.206301 10.7063 1.30562 -1.42563 14.3301 0.310073
-1.04987 5.79453 0.11912 -0.18926 14.7164 0.784845 -0.535379 10.7319 1.01071 -1.00189
12.8255 0.986433 0.0431351 11.8296 1.05395 -1.61734 13.3189 0.31933 0.0240016 14.823
1.08858 -0.859887 12.246 1.32957 -1.74659 13.7263 1.00097 0.160854 11.9942 1.0231
-1.55279 12.6788 0.453325 0.33384 11.654 1.53436 -1.61767 13.886 0.151344 -1.61498
5.35184 -0.11542 0.276643 12.9766 0.485887 0.254198 15.6062 0.474405 -0.563008 9.12176
0.939841 0.382012 11.941 1.39837 -1.12959 13.7299 0.488528 -1.05773 11.2178 1.08801
-0.260922 11.5957 0.992873 -1.75193 13.8781 0.253864 -0.275099 13.6257 0.7991 -0.876751
12.5312 1.87135 -1.17229 13.6122 0.408875 0.0973274 12.8758 0.373105 0.230892 12.5263
1.53953 -1.02334 16.3888 -0.370042 -1.77104 5.21416 0.261701 0.266424 9.70823 1.24596
0.237615 15.0036 -0.52614 -0.867468 14.94 -0.475552 -1.25766 10.1307 0.99965 -0.355401
12.6605 1.36537 -1.44135 12.4413 0.970466 -1.66867 12.8694 1.97826 -1.19257 12.5103
0.97592 -0.116698 15.1998 -0.870479 -0.515413 11.6226 0.867827 -0.426383 13.8892 -0.945995
-0.0101377 12.535 1.5736 -0.116378 13.8533 1.20023 -1.53834 13.8113 1.58321 -1.38948
16.0271 0.0977362 -1.06558 6.20778 1.10411 0.115057 13.8286 1.46362 -1.07035 15.1003
0.171673 -1.04569 9.0148 2.00081 -0.0343091 15.2102 0.00392019 -1.17829 9.59058 1.34577
-0.383748 14.2393 -0.46144 -0.127613 13.7868 1.90214 0.00215857 14.3711 -0.213029 -0.5175
11.8511 0.80225 -0.551638 13.7801 1.22053 -1.17739 14.035 1.11666 -1.38618 12.2017
1.22905 -0.56268 14.9586 -0.483095 -0.117855 14.4705 0.285936 -0.241604 12.7556 1.57783
-0.194269 5.21856 1.73024 -0.458304 15.4257 0.121026 -0.530414 7.0599 2.19754 -0.488086
16.6084 0.0933463 -0.834779 15.5828 -0.546024 -0.74695 10.3269 1.61258 -0.198285 14.8024
-0.483709 0.225222 13.2997 1.25782 -0.379178 14.3662 0.866507 -1.21773 14.5019 -1.29429
-0.593694 15.2293 1.22282 -0.672284 11.7621 0.714602 -0.575264 13.9822 0.658042 -0.676463
13.9321 1.00999 -0.516793 14.6498 0.122473 0.107952 14.8867 -1.43263 0.142774 13.1932
0.727445 -0.940029 16.1192 -0.130523 -0.481123 4.40758 1.78491 -0.496904 7.41673 2.0878
-1.21204 14.9121 0.369196 -1.08833 15.6117 -0.313021 -0.426832 13.2886 0.824599 -0.610469
13.5702 0.852123 -0.944961 15.2609 -0.842781 0.473201 14.6036 -0.201591 -0.557444 9.42568
1.94941 -1.52787 12.923 0.864261 -0.615046 14.1319 1.06807 -0.843634 14.6452 -0.0261746
-0.293329 12.1158 1.112 -1.67437 13.0358 0.0222592 -0.685794 16.6059 -0.0958106 0.299257
14.3908 0.0558787 0.336442 12.7926 0.967751 -1.68113 13.466 0.112319 -0.196954 15.0571
0.905111 -1.10636 13.6667 0.495212 -0.712601 15.7429 0.152068 -0.29004 14.4019 -0.114857
0.267201 4.67221 1.93593 -0.17111 12.613 1.09548 -1.37274 14.1644 -0.0750953 -0.227575
15.7037 -0.118742 -0.675212 13.1265 0.704285 -0.851096 8.35257 2.79748 -0.445393 14.5458
-0.277327 -0.721417 10.2003 2.26618 -0.974062 13.548 0.202498 0.398038 10.5981 1.9093
-1.41825 15.8195 -0.32613 0.466165 12.8624 -0.140746 -0.879703 14.7358 0.107779 -0.574894
14.6047 0.486203 -0.0497082 14.5979 0.538576 0.220917 12.5232 -0.0992543 -1.59857 11.8744
1.48072 -1.45082 15.8632 -0.640289 -1.04166 12.9542 0.0256876 -0.875445 15.7082 -0.17193
-0.372428 14.5567 0.328148 -0.0757415 13.481 1.25507 -1.41475 14.6899 -0.220658 0.348743
3.6621 2.2768 -0.293672 14.5273 -0.0581156 -0.152317 8.33138 3.04313 -0.819497 14.2444
0.306755 -1.1282 10.4323 1.954 -0.978193 14.3945 0.554372 -0.863462 13.3626 0.142524
-2.23831 15.5378 -0.880961 -0.201208 15.2982 0.238131 0.79046 10.6861 2.22622 -0.987069
12.7541 0.343415 -1.25709 14.9912 0.210667 0.145988 15.0456 -0.0594793 -1.0013 13.1103
-0.426432 -1.01381 10.6885 2.09528 -1.30729 15.6599 0.111976 0.0284469 15.2573 0.571988
-0.03055 12.7991 -0.779504 -0.67071 15.8264 -0.176104 -0.428224 14.5622 -0.539942 -1.0576
12.5638 1.29223 -1.39417 12.607 0.838899 -2.11845 15.1494 -0.0911836 -0.65888 14.6579
-0.0830355 0.649707 5.92736 2.28381 -0.156888 13.4758 0.208615 -0.772389 14.1309 -0.0320147
-0.0727758 9.06806 2.26049 -0.349637 14.6106 0.138028 -1.21371 10.992 1.59607 -0.423872
13.1925 0.256764 -1.27275 15.9752 -0.250826 0.0858365 12.2825 -0.423014 0.0759045 15.159
0.655097 -0.694556 15.3145 0.180887 0.390692 13.1814 2.04153 -0.460693 14.503 0.422043
0.086376 12.2713 2.56587 -0.595789 13.1422 0.240103 -1.6343 13.9712 1.09281 -0.617072
14.669 -0.192472 -0.955739 12.7708 -0.733692 -1.61585 15.3851 0.202573 -0.00140916 12.033
1.20982 -0.780207 14.0476 -0.218978 0.210263 14.8447 0.352334 -0.964872 14.4852 0.73322
-0.540684 14.6698 0.137932 0.0890336 5.01725 2.32271 0.305413 14.2862 0.457211 -0.14967
10.7181 2.11363 0.351792 13.5228 0.680307 -0.838086 11.6593 1.90907 -0.156321 15.7566
0.383916 0.161149 14.0939 -0.449286 -1.96028 13.2021 0.0887865 -0.66496 15.0545 0.495262
0.145481 15.027 0.801403 -0.377367 13.0621 -0.294525 -1.5803 12.7398 2.02196 -0.328411
14.2469 0.476237 -0.578124 14.9313 0.147609 -0.582934 15.2596 1.03497 -0.239784 14.8705
1.20466 0.0742717 13.382 2.60029 -0.215826 15.7614 -0.0985956 0.167982 13.6994 -0.11635
-0.374676 14.6315 -0.584415 -1.65399 14.401 0.052016 -0.803825 15.2671 1.57419 -0.517743
12.8396 1.43866 -0.230887 14.5972 -0.596199 -1.02056 15.517 0.145869 -0.56647 13.2151
-0.166847 -0.131905 5.2212 2.32795 0.286813 14.1125 -0.403089 0.601154 9.81812 2.3377
0.605949 16.0417 -0.0115055 -0.709529 13.9162 0.0345091 -1.3909 14.5939 0.746407 -0.320178
15.3679 1.47721 -0.435418 13.6618 0.56183 -0.568204 14.2082 1.44542 -0.696142 12.3131
2.41295 0.229444 14.0263 -0.0948929 -0.249637 14.8501 0.451825 -0.998385 12.9782 2.11346
-0.0778916 13.9834 1.27345 -0.575552 13.6593 0.17377 -0.890329 14.1977 0.932536 0.494608
13.5803 2.14131 0.390186 14.9104 0.780181 -0.35467 14.5675 -0.59617 -0.55713 15.2054
-0.237045 -0.179563 14.6704 -1.02092 -0.999384 14.0466 -0.119008 -1.71661 16.5943 0.752253
-0.559856 12.4423 2.26393 0.520656 15.5263 -0.5046 -0.583569 13.5641 -0.0733816 -0.628913
14.2766 0.141774 0.396978 12.9827 0.432842 -0.824212 15.8408 0.0457294 -0.560317 6.39656
1.67273 0.283274 14.3177 0.263317 -0.594261 16.9412 0.802008 -0.838442 9.35242 1.94073
0.632669 12.3487 1.2396 0.0937121 15.5857 -0.276716 -0.496646 14.0184 -0.768005 -0.147799
14.2758 0.73319 -0.922682 13.5593 2.42004 0.675541 13.7915 0.956708 -0.71382 14.1389
1.99715 0.445225 13.9601 -0.329212 -0.579834 14.4679 -0.34959 -0.61045 14.5788 0.957334
0.621785 12.7571 0.0236503 0.162497 14.9144 -0.260888 -1.31782 15.1446 0.997006 -0.933574
16.1949 -0.413228 -1.61159 14.4079 -0.691916 -0.413864 14.1752 1.46369 0.193936 15.0614
-0.755589 -0.691644 15.9217 -0.724799 -0.000433127 16.1504 0.973591 -0.740655 12.8666 2.61797
0.443879 13.8896 0.582686 0.33844 14.9032 0.751581 0.172442 14.8659 -1.00635 -0.277699
14.865 -0.202225 0.180641 16.5537 0.414487 -0.823864 12.5287 1.45853 0.687053 16.0297
-0.260116 -0.393803 5.3652 1.00288 0.455133 14.4002 -0.376103 -0.899294 9.11393 1.42853
0.830434 13.0423 -0.0499506 -0.978648 13.5105 1.82149 0.585871 14.0649 -0.222277 -0.481827
15.395 -0.976035 -1.73806 15.262 -0.761169 -0.967343 14.2414 0.0658704 -0.737586 12.9554
0.20867 -1.08506 14.3364 0.0611383 -0.351575 14.4314 -0.52622 -0.0803315 14.4014 1.63832
0.3047 16.0089 0.192928 0.372913 12.9317 -0.0671525 0.493066 15.7161 0.296856 -1.55559
15.9727 -0.280459 0.593672 13.1125 1.4803 0.000991968 14.6553 -0.637066 0.0353661 16.6022
0.309932 -1.13703 13.3042 2.19332 -0.169694 15.9941 0.58038 -0.264305 14.5527 0.0773799
0.165879 15.0172 -0.296107 0.642434 14.5359 -1.37865 -0.390842 14.4179 -0.745155 -0.591951
14.3506 -0.921243 -1.97251 13.1458 0.371577 -0.722869 12.028 1.33957 -0.0322431 15.4728
0.255825 -0.81088 15.5008 -0.0603283 -0.370743 5.87951 0.671428 0.219578 14.9177 0.398133
0.490016 14.9195 -0.827348 -0.282661 15.2107 -0.21677 -1.085 8.9156 0.99648 0.59464
15.1082 -0.0630199 -0.884322 13.6233 1.26394 0.824735 15.2156 0.147744 0.100101 15.1455
0.107389 -0.336784 14.3139 1.41274 0.752359 13.3679 0.160228 -1.17093 15.2572 0.111281
-0.276604 12.3671 0.035685 0.138573 14.5163 -0.730853 -0.35985 14.9969 -0.144226 1.27301
14.1203 -0.103188 -1.69865 14.9848 1.82596 0.422285 15.5723 -0.863796 -0.686882 13.3443
0.18436 -0.333255 15.5661 -1.15629 -0.490002 14.2965 -0.369678 0.832241 13.801 -0.919759
-1.55057 13.6279 1.9246 0.0377825 14.4576 -0.543796 0.0718746 14.1137 0.969646 0.994181
14.1301 -0.1874 -0.495789 15.8531 -0.279535 -1.14563 14.467 0.504298 -0.333195 15.0077
0.155334 0.130336 13.3769 1.21888 0.0678991 16.1751 -0.464485 -0.713951 5.99089 0.324081
0.211717 14.5663 -0.0626991 -0.368385 10.92 0.560465 0.541086 14.5021 0.23893 -0.118346
14.4981 -0.493141 0.183144 15.2248 -0.156871 -0.989328 14.1059 0.0745676 1.3888 14.8721
1.01491 0.99869 14.5389 -0.226588 -0.626254 15.0159 -1.09566 -0.182974 13.2663 0.362744
0.46592 15.1299 -1.338 -0.499677 14.6631 1.65025 1.178 14.4274 -0.613594 -0.739168
15.204 -0.212149 0.0918316 14.9402 -0.660614 -0.948592 13.63 0.674802 1.11315 14.8822
1.76832 0.73507 14.2857 -0.992233 -1.18852 14.2061 0.680402 -0.230786 15.9105 0.00781046
-0.660862 13.6724 -0.520623 0.57768 16.4164 -0.649267 0.00398024 14.6331 -0.44049 0.780048
13.5404 -1.95164 -0.115603 14.6316 1.77779 0.225727 15.4666 -0.854754 -0.287241 15.1767
0.516642 -0.158745 14.2114 0.33189 0.223265 14.4234 0.930381 -0.0816925 14.7691 -0.455135
-0.202545 14.82 -0.299235 0.574741 14.5365 -1.44127 0.185652 13.5131 0.402989 0.819273
13.5325 -0.562354 0.186725 15.2835 -0.174647 1.03045 15.5182 -1.00188 0.0244456 7.24361
0.355844 0.200154 13.899 0.0851532 -0.296149 12.3663 0.634789 0.538188 15.0506 0.530272
-0.0130253 15.067 -0.329554 -0.928942 15.0158 0.082668 -0.446696 14.1027 -0.198203 -0.199517
13.76 0.865989 0.823917 12.6722 0.874811 -0.397707 14.8889 -0.532847 -0.533694 14.7629
-0.0546268 0.248128 14.3224 1.87343 1.06184 15.7039 -0.110363 -0.229651 14.555 -0.273448
-0.0218083 14.3627 1.58202 1.04718 15.0226 -0.324435 -0.677472 14.6176 -0.826417 0.209053
14.7832 -0.0770669 -0.793898 14.2331 0.0667695 0.361896 13.8314 0.0788445 -0.583413 14.8132
0.280773 -0.550553 15.1686 -1.28263 0.180609 14.8312 1.24915 0.705052 14.6258 -0.155973
0.865177 14.8247 -0.546313 0.406632 13.7429 0.342101 0.226162 14.4567 -0.80071 0.453975
15.7327 -0.574691 -0.497874 14.8658 -0.656954 0.557288 14.9347 0.696756 0.361784 14.3857
-0.19719 -0.0395974 16.1284 -0.785394 -1.90215 13.9912 -0.907506 0.547731 14.1008 -0.318574
-0.228122 14.9303 -1.6636 0.363262 14.3853 -0.432894 0.0427345 7.39499 0.848259 0.163822
13.5025 -1.23253 -0.135412 13.193 -0.431356 0.868703 11.2405 1.00804 0.163851 14.4062
-0.68863 -1.06088 13.8218 -1.4762 -0.12815 14.4628 0.910705 -0.00588059 15.181 1.01182
0.306448 14.8583 -1.47587 -0.837676 14.404 -1.35975 0.42532 14.7372 1.71158 0.0645938
15.4849 -0.418816 0.135802 14.5788 -1.57945 0.137939 14.707 0.02783 -2.25894 14.4679
-1.60779 0.214685 13.3699 -1.53741 -0.511195 14.3822 1.64426 0.1652 14.2635 -0.427823
0.361009 14.5059 -1.47846 0.18133 14.4859 0.521311 0.0661 14.7048 -1.88424 0.013614
13.7001 0.390056 -0.054095 13.7731 -0.962536 0.4542 14.4064 -1.82777 1.36095 14.1128
0.819643 0.322821 14.9935 -1.04164 -0.955798 14.684 -1.17331 -0.198354 15.8693 -1.02663
-0.184819 15.4892 -1.47237 0.170929 15.7916 -1.85337 0.575055 14.1601 1.00638 0.202796
13.3884 -0.0210544 -0.164742 16.1534 -1.74975 0.421889 12.9411 -0.515061 -2.33956 14.0349
-2.20997 0.957477 15.2614 -1.20976 0.136715 6.67023 1.115 0.0601801 9.93423 1.44641
-0.0694931 14.419 -2.21351 -0.0954709 14.5841 -1.40919 0.479576 13.5102 -1.82045 -0.302782
14.9338 0.791221 -0.0903533 11.8546 0.902343 -0.252076 14.0373 -0.138482 -0.143515 12.8677
-1.22535 0.254142 13.6499 -1.68781 -0.113179 13.5762 -0.581073 0.0487633 15.9187 -1.61673
-0.284005 14.8441 0.0134502 -1.09081 14.2733 1.30961 -0.145864 14.8764 -1.54503 0.0373435
16.5894 -0.926689 0.271217 14.1301 0.812386 -0.599555 13.2056 -1.58257 0.0707122 14.3492
1.74112 -0.254001 15.2312 -0.318281 -0.14531 13.9134 -2.21739 -0.727464 14.5744 0.525064
-0.123211 13.1464 -1.20442 -2.32994 14.217 -2.15499 -0.373925 14.8743 0.858887 -0.0725327
14.8353 -0.453547 0.656659 15.5299 -1.63241 -0.0645248 14.8013 -1.47761 0.0936851 14.7741
0.263173 -0.418046 14.2554 -0.0881454 -1.96698 16.3603 -2.15291 0.129982 14.7511 -1.74268
0.420649 15.1725 1.24005 0.561285 15.5211 -0.955525 0.124494 14.9208 -0.997348 0.239122
15.5718 -1.43822 0.698071 15.5615 0.200454 -0.449393 12.471 -1.60202 0.385161 7.33149
1.01866 -0.630269 14.2087 0.845162 -1.86483 13.5998 -2.06479 0.00874848 14.9334 0.687514
0.926759 15.1664 -1.07717 0.172056 9.72115 1.73337 -1.24966 15.4468 -0.297771 -0.243967
15.77 -1.72637 0.217394 16.709 -1.50422 -0.837503 12.8293 0.577705 -0.89153 12.3515
-0.353968 -0.795079 12.3527 0.998151 -0.417241 13.2567 -0.766854 -1.77075 15.6051 -1.58571
-0.433887 15.6342 0.169541 0.922537 15.0512 -1.10511 -0.636427 13.5812 1.6145 -0.097045
16.0473 -1.7696 0.822031 14.5845 1.22011 -0.102152 13.2639 -1.57898 0.843523 16.9413
-1.77827 0.0192387 14.2403 -1.20265 -0.922274 15.8318 -1.08216 -0.232623 15.0383 -0.183384
-0.531647 14.0856 -1.67421 -0.429747 15.2442 0.108189 -0.974256 13.5064 -2.40271 0.337084
16.7011 0.168474 0.214344 15.7727 -1.51473 -0.0289302 14.7014 0.947822 -0.594685 14.5036
0.214931 -0.765146 15.5309 -1.5184 0.326724 15.2422 -2.56035 0.337592 14.7262 -0.39316
-1.10729 15.1976 0.603784 -0.401169 6.20444 1.03172 -0.0819796 14.0885 -0.0502206 -0.716959
16.7605 -1.97865 -0.459765 10.0259 1.51071 0.0467592 12.8686 0.237577 0.0563002 13.9234
-0.126138 -0.441804 15.1507 -1.28509 -0.10835 12.8728 1.18961 -0.429468 15.6071 -1.67728
0.0685369 14.7557 -1.98555 1.28199 15.7318 0.108265 0.359194 14.622 -0.957153 0.0347563
13.033 -2.67614 0.709287 13.8164 1.27154 -0.620994 14.7999 -0.000951452 -0.443869 14.4256
-0.288315 -1.18131 13.9076 -1.45026 0.273306 14.9594 -2.01699 0.113245 14.6813 -2.75129
-0.505362 14.6649 -0.258971 -1.30775 14.4142 1.2203 -0.360679 15.1463 -0.327625 0.59115
14.4093 -0.174721 -0.482188 14.7513 -1.02536 0.530701 13.6908 0.78005 -0.107199 14.5784
0.36334 -1.42323 14.5584 -1.69737 0.174073 15.3317 -2.33857 0.227222 15.4574 -0.940893
0.53634 14.5236 -2.16763 1.26949 16.3221 -0.075846 0.142034 15.0596 -2.32002 0.233787
16.2993 0.274423 0.0373803 13.8707 0.267719 -1.40999 4.24192 1.03582 0.137808 9.04771
1.1594 0.276037 15.6828 -0.833501 -0.535699 13.8452 -1.03979 0.220144 13.1423 0.120801
-0.147857 14.3178 1.30749 -0.903803 15.6531 0.204364 -0.0166884 16.1553 0.37799 -0.829252
16.1408 -1.45956 0.377792 14.7479 0.600388 -0.907965 14.7404 -0.131358 -1.34901 15.4163
-1.43087 -0.0864481 16.5327 -0.0386962 -0.553909 15.9955 -1.82322 0.436278 13.3502 0.527204
-0.328631 12.8793 0.0161663 -1.07932 14.5038 -0.223787 -0.28981 15.6097 -1.85835 0.308745
15.0242 -1.18078 0.205679 13.5558 0.630067 -0.410006 13.6294 -0.726047 -0.166621 14.4773
-0.910854 0.68203 15.4292 0.760949 -0.612749 14.3114 0.337639 -1.16659 15.1414 -1.51716
0.194876 14.6506 -1.36519 -0.841117 14.0136 -2.10119 -0.377768 15.5721 -0.162094 -0.591717
14.8708 -0.0787032 -1.01843 4.55571 0.688907 -0.199591 15.2609 -1.71794 0.236058 8.73785
0.7947 -0.285064 15.3035 0.418113 -0.763605 12.4483 0.0715378 -0.309238 14.5714 0.87707
-0.493378 14.6387 0.205564 -1.42089 16.6972 -0.380079 -0.866838 15.7989 -0.282404 -0.824822
15.5007 -0.519365 0.154332 14.1928 0.160331 -0.491725 15.1898 0.354729 -1.27191 16.5148
-1.57485 0.180759 14.1626 -0.864865 0.167638 14.9964 -1.47421 -0.0311229 14.3034 -1.09146
-0.613005 13.4232 -2.1132 0.0262299 14.1693 0.0724036 -0.404561 14.1545 0.54778 -1.55308
15.0554 -1.76231 -1.08582 14.9034 -1.58809 -0.289123 13.5228 0.331484 -0.512479 15.7276
0.527607 -1.02148 15.456 0.377444 -1.71722 15.4523 -0.0870734 -1.36201 16.0242 0.146452
-1.30045 16.7257 -1.39377 0.00504345 14.8318 -0.181663 -0.940359 15.5647 -0.350748 -0.116888
16.2833 -2.17192 -0.0809114 5.20648 0.419046 -0.379481 8.92512 0.416367 -0.455514 14.3368
-0.0811132 -0.587331 12.9489 0.31139 0.0492578 15.6523 -0.782797 -1.29443 13.2885 -1.74465
-0.103833 14.8894 0.0339514 -1.37103 14.5845 0.351981 0.204783 15.1868 -0.163051 -1.16236
16.3879 0.238096 -1.97874 13.0443 -1.22409 -1.39356 13.0333 -1.49787 -0.22845 14.5361
0.302908 -0.0757954 14.6251 1.13619 -1.4366 15.1091 -1.56021 -1.2592 15.1855 -1.16021
0.028393 13.3824 0.133296 -0.205142 15.2614 0.166315 -1.36796 14.9851 0.379012 -1.22424
13.6619 0.388017 -0.532723 16.3867 -0.162866 -1.89671 14.5643 -2.06339 -0.360724 14.8808
0.196056 -1.22816 15.5379 -0.337515 -0.687051 14.3584 -1.66639 -0.381437 12.6755 0.310089
-1.29015 14.3259 -1.58549 0.49835 13.4113 0.0913861 -1.539 16.0813 -0.860584 -1.46203
4.89173 0.668108 0.0764225 13.8512 -1.02416 -0.802718 15.0961 -1.14222 -0.105547 10.8017
0.31902 -0.0368056 16.2003 -0.705049 -1.27855 13.8714 0.750579 -0.128993 14.7254 -0.10706
-2.05312 15.1712 0.204558 -0.754038 13.742 0.00413309 0.0957172 15.7949 -1.11994 -1.89765
13.8273 -0.0121592 -0.242783 13.9501 1.41509 -1.73246 12.5008 0.396088 -0.935534 14.8294
-0.22023 -1.80157 14.0344 -1.40835 -0.796165 14.4073 -1.6263 -0.0562062 15.1161 0.498948
-0.489426 13.5517 -0.444916 -1.53576 13.6994 -1.54689 -0.248243 14.6868 -0.690706 -1.79661
14.2098 0.800598 -1.19907 15.3654 0.173684 -0.194048 15.7537 -1.16573 0.511253 15.8031
0.73337 -1.38815 13.9156 -0.388058 -1.38935 13.2742 0.57824 -1.59724 16.1202 -0.269485
-0.636555 14.9983 -1.28292 -1.83114 5.29122 0.925973 0.501601 9.1213 0.49182 0.788529
14.839 0.71279 -1.39609 15.1704 0.279201 -2.13984 13.0629 0.817486 0.204246 13.8897
-0.52249 -2.37501 15.4116 -1.2291 -0.964366 15.5923 -0.0834631 -0.392835 15.2941 -1.30544
-1.9241 15.6472 -1.34678 0.0945769 15.2488 -1.15761 -0.0499233 15.2512 -0.385094 -0.572099
14.026 -0.376938 -0.560179 15.3397 -0.357331 -0.720926 13.6311 1.56446 -2.19052 14.5068
0.836163 -1.36054 15.0628 -0.709168 -1.33915 14.2042 -0.216056 -0.616137 14.2418 0.443217
-0.605845 14.2178 0.943288 -0.546825 15.9987 1.27323 -1.71524 13.6646 0.316879 -2.06835
14.9495 -0.877407 -0.832646 13.7583 0.987627 -0.328306 14.3584 0.716952 -1.48356 16.0186
-1.13221 -0.768892 14.212 -0.720664 -1.8319 16.1259 -1.2937 -0.00320007 14.8662 -1.48815
-1.07552 15.0305 -0.121162 -0.946556 14.7307 1.36344 -1.15832 4.89498 0.739673 0.0708509
14.2533 -0.149501 -0.327037 10.0518 0.620622 0.43431 14.7955 1.07536 -0.436208 13.0993
0.714721 0.756049 14.3123 0.275206 0.478674 16.2905 0.0638175 -1.85156 13.5469 -0.467734
-1.40083 11.8432 -0.126777 -0.0570069 14.6292 -0.388196 -1.09321 15.6189 1.69682 -0.299594
15.232 1.12022 -0.998887 13.6673 0.0986835 -0.450577 14.7033 0.222713 -1.00281 14.6358
-0.544251 -1.59369 12.9262 -1.18604 -0.235323 14.8461 0.563415 -0.683462 13.8859 -0.485405
-1.03331 15.0673 1.51521 0.200835 15.122 -0.758707 -0.257736 14.3071 -0.383487 -1.91346
15.7529 1.26931 -0.962315 15.3573 0.19941 -1.34923 14.9219 1.24711 -0.706226 12.9604